elf                                     
   1.00000000000000     
     2.806669    0.000000    0.000010
     0.000000    8.225135    0.000000
     0.000007    0.000000    1.929878
   Mg   Si   O 
     4     2     6
Direct
  0.000000  0.339970  0.000000
  0.500000  0.160030  0.000000
  0.500000  0.839970  0.000000
  0.000000  0.660030  0.000000
  0.000000  0.000000  0.500000
  0.500000  0.500000  0.500000
  0.000000  0.176815  0.500000
  0.500000  0.323185  0.500000
  0.500000  0.000000  0.500000
  0.500000  0.676815  0.500000
  0.000000  0.823185  0.500000
  0.000000  0.500000  0.500000
 
   20   60   14
 0.98801     0.98403     0.96430     0.89188     0.69253     0.40997     0.22698     0.15571     0.13527     0.13191    
 0.13200     0.13191     0.13527     0.15571     0.22698     0.40997     0.69253     0.89188     0.96430     0.98403    
 0.98461     0.98002     0.95797     0.88078     0.67820     0.40053     0.22221     0.15201     0.13132     0.12753    
 0.12744     0.12753     0.13132     0.15201     0.22221     0.40053     0.67820     0.88078     0.95797     0.98002    
 0.96824     0.96136     0.93119     0.83966     0.63145     0.37040     0.20504     0.13774     0.11638     0.11151    
 0.11097     0.11151     0.11638     0.13774     0.20504     0.37040     0.63145     0.83966     0.93119     0.96136    
 0.90866     0.89682     0.85164     0.74214     0.54103     0.31431     0.17015     0.10875     0.87867E-01 0.82373E-01
 0.81536E-01 0.82373E-01 0.87867E-01 0.10875     0.17015     0.31431     0.54103     0.74214     0.85164     0.89682    
 0.73146     0.71500     0.66087     0.55665     0.39825     0.22967     0.11872     0.69959E-01 0.53303E-01 0.49052E-01
 0.48484E-01 0.49052E-01 0.53303E-01 0.69959E-01 0.11872     0.22967     0.39825     0.55665     0.66087     0.71500    
 0.43850     0.42705     0.39172     0.32857     0.23586     0.13506     0.65625E-01 0.34881E-01 0.25007E-01 0.23056E-01
 0.23040E-01 0.23056E-01 0.25007E-01 0.34881E-01 0.65625E-01 0.13506     0.23586     0.32857     0.39172     0.42705    
 0.22524     0.22111     0.20615     0.17420     0.12342     0.68037E-01 0.30021E-01 0.13560E-01 0.87499E-02 0.82027E-02
 0.84463E-02 0.82027E-02 0.87499E-02 0.13560E-01 0.30021E-01 0.68037E-01 0.12342     0.17420     0.20615     0.22111    
 0.14157     0.14007     0.13202     0.11047     0.75301E-01 0.39044E-01 0.15168E-01 0.52101E-02 0.24972E-02 0.21594E-02
 0.22892E-02 0.21594E-02 0.24972E-02 0.52101E-02 0.15168E-01 0.39044E-01 0.75301E-01 0.11047     0.13202     0.14007    
 0.12251     0.12157     0.11480     0.95111E-01 0.63648E-01 0.32506E-01 0.12029E-01 0.32655E-02 0.91171E-03 0.47433E-03
 0.44109E-03 0.47433E-03 0.91171E-03 0.32655E-02 0.12029E-01 0.32506E-01 0.63648E-01 0.95111E-01 0.11480     0.12157    
 0.12927     0.12844     0.12167     0.10135     0.68812E-01 0.36369E-01 0.14113E-01 0.37258E-02 0.70940E-03 0.14347E-03
 0.70160E-04 0.14347E-03 0.70940E-03 0.37258E-02 0.14113E-01 0.36369E-01 0.68812E-01 0.10135     0.12167     0.12844    
 0.14587     0.14514     0.13829     0.11678     0.80972E-01 0.43781E-01 0.17252E-01 0.45390E-02 0.81841E-03 0.13848E-03
 0.57176E-04 0.13848E-03 0.81841E-03 0.45390E-02 0.17252E-01 0.43781E-01 0.80972E-01 0.11678     0.13829     0.14514    
 0.16382     0.16322     0.15651     0.13379     0.93401E-01 0.49169E-01 0.17815E-01 0.43184E-02 0.97876E-03 0.42044E-03
 0.37240E-03 0.42044E-03 0.97876E-03 0.43184E-02 0.17815E-01 0.49169E-01 0.93401E-01 0.13379     0.15651     0.16322    
 0.17350     0.17300     0.16665     0.14340     0.98847E-01 0.48573E-01 0.15992E-01 0.44131E-02 0.19956E-02 0.20561E-02
 0.24679E-02 0.20561E-02 0.19956E-02 0.44131E-02 0.15992E-01 0.48573E-01 0.98847E-01 0.14340     0.16665     0.17300    
 0.16303     0.16221     0.15562     0.13284     0.88818E-01 0.41881E-01 0.15652E-01 0.74884E-02 0.69687E-02 0.96024E-02
 0.11419E-01 0.96024E-02 0.69687E-02 0.74884E-02 0.15652E-01 0.41881E-01 0.88818E-01 0.13284     0.15562     0.16221    
 0.12765     0.12557     0.11695     0.95879E-01 0.62864E-01 0.34221E-01 0.20886E-01 0.19325E-01 0.24909E-01 0.32593E-01
 0.36110E-01 0.32593E-01 0.24909E-01 0.19325E-01 0.20886E-01 0.34221E-01 0.62864E-01 0.95879E-01 0.11695     0.12557    
 0.78862E-01 0.75278E-01 0.64843E-01 0.49655E-01 0.36185E-01 0.31094E-01 0.36185E-01 0.49655E-01 0.64843E-01 0.75278E-01
 0.78862E-01 0.75278E-01 0.64843E-01 0.49655E-01 0.36185E-01 0.31094E-01 0.36185E-01 0.49655E-01 0.64843E-01 0.75278E-01
 0.36110E-01 0.32593E-01 0.24909E-01 0.19325E-01 0.20886E-01 0.34221E-01 0.62864E-01 0.95879E-01 0.11695     0.12557    
 0.12765     0.12557     0.11695     0.95879E-01 0.62864E-01 0.34221E-01 0.20886E-01 0.19325E-01 0.24909E-01 0.32593E-01
 0.11419E-01 0.96024E-02 0.69687E-02 0.74884E-02 0.15652E-01 0.41881E-01 0.88818E-01 0.13284     0.15562     0.16221    
 0.16303     0.16221     0.15562     0.13284     0.88818E-01 0.41881E-01 0.15652E-01 0.74884E-02 0.69687E-02 0.96024E-02
 0.24679E-02 0.20561E-02 0.19956E-02 0.44131E-02 0.15992E-01 0.48573E-01 0.98847E-01 0.14340     0.16665     0.17300    
 0.17350     0.17300     0.16665     0.14340     0.98847E-01 0.48573E-01 0.15992E-01 0.44131E-02 0.19956E-02 0.20561E-02
 0.37240E-03 0.42044E-03 0.97876E-03 0.43184E-02 0.17815E-01 0.49169E-01 0.93401E-01 0.13379     0.15651     0.16322    
 0.16382     0.16322     0.15651     0.13379     0.93401E-01 0.49169E-01 0.17815E-01 0.43184E-02 0.97876E-03 0.42044E-03
 0.57176E-04 0.13848E-03 0.81841E-03 0.45390E-02 0.17252E-01 0.43781E-01 0.80972E-01 0.11678     0.13829     0.14514    
 0.14587     0.14514     0.13829     0.11678     0.80972E-01 0.43781E-01 0.17252E-01 0.45390E-02 0.81841E-03 0.13848E-03
 0.70160E-04 0.14347E-03 0.70940E-03 0.37258E-02 0.14113E-01 0.36369E-01 0.68812E-01 0.10135     0.12167     0.12844    
 0.12927     0.12844     0.12167     0.10135     0.68812E-01 0.36369E-01 0.14113E-01 0.37258E-02 0.70940E-03 0.14347E-03
 0.44109E-03 0.47433E-03 0.91171E-03 0.32655E-02 0.12029E-01 0.32506E-01 0.63648E-01 0.95111E-01 0.11480     0.12157    
 0.12251     0.12157     0.11480     0.95111E-01 0.63648E-01 0.32506E-01 0.12029E-01 0.32655E-02 0.91171E-03 0.47433E-03
 0.22892E-02 0.21594E-02 0.24972E-02 0.52101E-02 0.15168E-01 0.39044E-01 0.75301E-01 0.11047     0.13202     0.14007    
 0.14157     0.14007     0.13202     0.11047     0.75301E-01 0.39044E-01 0.15168E-01 0.52101E-02 0.24972E-02 0.21594E-02
 0.84463E-02 0.82027E-02 0.87499E-02 0.13560E-01 0.30021E-01 0.68037E-01 0.12342     0.17420     0.20615     0.22111    
 0.22524     0.22111     0.20615     0.17420     0.12342     0.68037E-01 0.30021E-01 0.13560E-01 0.87499E-02 0.82027E-02
 0.23040E-01 0.23056E-01 0.25007E-01 0.34881E-01 0.65625E-01 0.13506     0.23586     0.32857     0.39172     0.42705    
 0.43850     0.42705     0.39172     0.32857     0.23586     0.13506     0.65625E-01 0.34881E-01 0.25007E-01 0.23056E-01
 0.48484E-01 0.49052E-01 0.53303E-01 0.69959E-01 0.11872     0.22967     0.39825     0.55665     0.66087     0.71500    
 0.73146     0.71500     0.66087     0.55665     0.39825     0.22967     0.11872     0.69959E-01 0.53303E-01 0.49052E-01
 0.81536E-01 0.82373E-01 0.87867E-01 0.10875     0.17015     0.31431     0.54103     0.74214     0.85164     0.89682    
 0.90866     0.89682     0.85164     0.74214     0.54103     0.31431     0.17015     0.10875     0.87867E-01 0.82373E-01
 0.11097     0.11151     0.11638     0.13774     0.20504     0.37040     0.63145     0.83966     0.93119     0.96136    
 0.96824     0.96136     0.93119     0.83966     0.63145     0.37040     0.20504     0.13774     0.11638     0.11151    
 0.12744     0.12753     0.13132     0.15201     0.22221     0.40053     0.67820     0.88078     0.95797     0.98002    
 0.98461     0.98002     0.95797     0.88078     0.67820     0.40053     0.22221     0.15201     0.13132     0.12753    
 0.13200     0.13191     0.13527     0.15571     0.22698     0.40997     0.69253     0.89188     0.96430     0.98403    
 0.98801     0.98403     0.96430     0.89188     0.69253     0.40997     0.22698     0.15571     0.13527     0.13191    
 0.12744     0.12753     0.13132     0.15201     0.22221     0.40053     0.67820     0.88078     0.95797     0.98002    
 0.98461     0.98002     0.95797     0.88078     0.67820     0.40053     0.22221     0.15201     0.13132     0.12753    
 0.11097     0.11151     0.11638     0.13774     0.20504     0.37040     0.63145     0.83966     0.93119     0.96136    
 0.96824     0.96136     0.93119     0.83966     0.63145     0.37040     0.20504     0.13774     0.11638     0.11151    
 0.81536E-01 0.82373E-01 0.87867E-01 0.10875     0.17015     0.31431     0.54103     0.74214     0.85164     0.89682    
 0.90866     0.89682     0.85164     0.74214     0.54103     0.31431     0.17015     0.10875     0.87867E-01 0.82373E-01
 0.48484E-01 0.49052E-01 0.53303E-01 0.69959E-01 0.11872     0.22967     0.39825     0.55665     0.66087     0.71500    
 0.73146     0.71500     0.66087     0.55665     0.39825     0.22967     0.11872     0.69959E-01 0.53303E-01 0.49052E-01
 0.23040E-01 0.23056E-01 0.25007E-01 0.34881E-01 0.65625E-01 0.13506     0.23586     0.32857     0.39172     0.42705    
 0.43850     0.42705     0.39172     0.32857     0.23586     0.13506     0.65625E-01 0.34881E-01 0.25007E-01 0.23056E-01
 0.84463E-02 0.82027E-02 0.87499E-02 0.13560E-01 0.30021E-01 0.68037E-01 0.12342     0.17420     0.20615     0.22111    
 0.22524     0.22111     0.20615     0.17420     0.12342     0.68037E-01 0.30021E-01 0.13560E-01 0.87499E-02 0.82027E-02
 0.22892E-02 0.21594E-02 0.24972E-02 0.52101E-02 0.15168E-01 0.39044E-01 0.75301E-01 0.11047     0.13202     0.14007    
 0.14157     0.14007     0.13202     0.11047     0.75301E-01 0.39044E-01 0.15168E-01 0.52101E-02 0.24972E-02 0.21594E-02
 0.44109E-03 0.47433E-03 0.91171E-03 0.32655E-02 0.12029E-01 0.32506E-01 0.63648E-01 0.95111E-01 0.11480     0.12157    
 0.12251     0.12157     0.11480     0.95111E-01 0.63648E-01 0.32506E-01 0.12029E-01 0.32655E-02 0.91171E-03 0.47433E-03
 0.70160E-04 0.14347E-03 0.70940E-03 0.37258E-02 0.14113E-01 0.36369E-01 0.68812E-01 0.10135     0.12167     0.12844    
 0.12927     0.12844     0.12167     0.10135     0.68812E-01 0.36369E-01 0.14113E-01 0.37258E-02 0.70940E-03 0.14347E-03
 0.57176E-04 0.13848E-03 0.81841E-03 0.45390E-02 0.17252E-01 0.43781E-01 0.80972E-01 0.11678     0.13829     0.14514    
 0.14587     0.14514     0.13829     0.11678     0.80972E-01 0.43781E-01 0.17252E-01 0.45390E-02 0.81841E-03 0.13848E-03
 0.37240E-03 0.42044E-03 0.97876E-03 0.43184E-02 0.17815E-01 0.49169E-01 0.93401E-01 0.13379     0.15651     0.16322    
 0.16382     0.16322     0.15651     0.13379     0.93401E-01 0.49169E-01 0.17815E-01 0.43184E-02 0.97876E-03 0.42044E-03
 0.24679E-02 0.20561E-02 0.19956E-02 0.44131E-02 0.15992E-01 0.48573E-01 0.98847E-01 0.14340     0.16665     0.17300    
 0.17350     0.17300     0.16665     0.14340     0.98847E-01 0.48573E-01 0.15992E-01 0.44131E-02 0.19956E-02 0.20561E-02
 0.11419E-01 0.96024E-02 0.69687E-02 0.74884E-02 0.15652E-01 0.41881E-01 0.88818E-01 0.13284     0.15562     0.16221    
 0.16303     0.16221     0.15562     0.13284     0.88818E-01 0.41881E-01 0.15652E-01 0.74884E-02 0.69687E-02 0.96024E-02
 0.36110E-01 0.32593E-01 0.24909E-01 0.19325E-01 0.20886E-01 0.34221E-01 0.62864E-01 0.95879E-01 0.11695     0.12557    
 0.12765     0.12557     0.11695     0.95879E-01 0.62864E-01 0.34221E-01 0.20886E-01 0.19325E-01 0.24909E-01 0.32593E-01
 0.78862E-01 0.75278E-01 0.64843E-01 0.49655E-01 0.36185E-01 0.31094E-01 0.36185E-01 0.49655E-01 0.64843E-01 0.75278E-01
 0.78862E-01 0.75278E-01 0.64843E-01 0.49655E-01 0.36185E-01 0.31094E-01 0.36185E-01 0.49655E-01 0.64843E-01 0.75278E-01
 0.12765     0.12557     0.11695     0.95879E-01 0.62864E-01 0.34221E-01 0.20886E-01 0.19325E-01 0.24909E-01 0.32593E-01
 0.36110E-01 0.32593E-01 0.24909E-01 0.19325E-01 0.20886E-01 0.34221E-01 0.62864E-01 0.95879E-01 0.11695     0.12557    
 0.16303     0.16221     0.15562     0.13284     0.88818E-01 0.41881E-01 0.15652E-01 0.74884E-02 0.69687E-02 0.96024E-02
 0.11419E-01 0.96024E-02 0.69687E-02 0.74884E-02 0.15652E-01 0.41881E-01 0.88818E-01 0.13284     0.15562     0.16221    
 0.17350     0.17300     0.16665     0.14340     0.98847E-01 0.48573E-01 0.15992E-01 0.44131E-02 0.19956E-02 0.20561E-02
 0.24679E-02 0.20561E-02 0.19956E-02 0.44131E-02 0.15992E-01 0.48573E-01 0.98847E-01 0.14340     0.16665     0.17300    
 0.16382     0.16322     0.15651     0.13379     0.93401E-01 0.49169E-01 0.17815E-01 0.43184E-02 0.97876E-03 0.42044E-03
 0.37240E-03 0.42044E-03 0.97876E-03 0.43184E-02 0.17815E-01 0.49169E-01 0.93401E-01 0.13379     0.15651     0.16322    
 0.14587     0.14514     0.13829     0.11678     0.80972E-01 0.43781E-01 0.17252E-01 0.45390E-02 0.81841E-03 0.13848E-03
 0.57176E-04 0.13848E-03 0.81841E-03 0.45390E-02 0.17252E-01 0.43781E-01 0.80972E-01 0.11678     0.13829     0.14514    
 0.12927     0.12844     0.12167     0.10135     0.68812E-01 0.36369E-01 0.14113E-01 0.37258E-02 0.70940E-03 0.14347E-03
 0.70160E-04 0.14347E-03 0.70940E-03 0.37258E-02 0.14113E-01 0.36369E-01 0.68812E-01 0.10135     0.12167     0.12844    
 0.12251     0.12157     0.11480     0.95111E-01 0.63648E-01 0.32506E-01 0.12029E-01 0.32655E-02 0.91171E-03 0.47433E-03
 0.44109E-03 0.47433E-03 0.91171E-03 0.32655E-02 0.12029E-01 0.32506E-01 0.63648E-01 0.95111E-01 0.11480     0.12157    
 0.14157     0.14007     0.13202     0.11047     0.75301E-01 0.39044E-01 0.15168E-01 0.52101E-02 0.24972E-02 0.21594E-02
 0.22892E-02 0.21594E-02 0.24972E-02 0.52101E-02 0.15168E-01 0.39044E-01 0.75301E-01 0.11047     0.13202     0.14007    
 0.22524     0.22111     0.20615     0.17420     0.12342     0.68037E-01 0.30021E-01 0.13560E-01 0.87499E-02 0.82027E-02
 0.84463E-02 0.82027E-02 0.87499E-02 0.13560E-01 0.30021E-01 0.68037E-01 0.12342     0.17420     0.20615     0.22111    
 0.43850     0.42705     0.39172     0.32857     0.23586     0.13506     0.65625E-01 0.34881E-01 0.25007E-01 0.23056E-01
 0.23040E-01 0.23056E-01 0.25007E-01 0.34881E-01 0.65625E-01 0.13506     0.23586     0.32857     0.39172     0.42705    
 0.73146     0.71500     0.66087     0.55665     0.39825     0.22967     0.11872     0.69959E-01 0.53303E-01 0.49052E-01
 0.48484E-01 0.49052E-01 0.53303E-01 0.69959E-01 0.11872     0.22967     0.39825     0.55665     0.66087     0.71500    
 0.90866     0.89682     0.85164     0.74214     0.54103     0.31431     0.17015     0.10875     0.87867E-01 0.82373E-01
 0.81536E-01 0.82373E-01 0.87867E-01 0.10875     0.17015     0.31431     0.54103     0.74214     0.85164     0.89682    
 0.96824     0.96136     0.93119     0.83966     0.63145     0.37040     0.20504     0.13774     0.11638     0.11151    
 0.11097     0.11151     0.11638     0.13774     0.20504     0.37040     0.63145     0.83966     0.93119     0.96136    
 0.98461     0.98002     0.95797     0.88078     0.67820     0.40053     0.22221     0.15201     0.13132     0.12753    
 0.12744     0.12753     0.13132     0.15201     0.22221     0.40053     0.67820     0.88078     0.95797     0.98002    
 0.98500     0.97946     0.95212     0.85806     0.63813     0.38595     0.25126     0.21999     0.23732     0.26335    
 0.27446     0.26335     0.23731     0.21998     0.25125     0.38594     0.63813     0.85806     0.95212     0.97946    
 0.98026     0.97385     0.94341     0.84411     0.62310     0.37688     0.24548     0.21384     0.22961     0.25441    
 0.26509     0.25441     0.22961     0.21384     0.24548     0.37687     0.62310     0.84411     0.94341     0.97385    
 0.95751     0.94798     0.90726     0.79362     0.57457     0.34778     0.22555     0.19229     0.20288     0.22356    
 0.23283     0.22356     0.20288     0.19228     0.22554     0.34777     0.57457     0.79362     0.90726     0.94798    
 0.87887     0.86366     0.80738     0.68221     0.48424     0.29383     0.18654     0.15151     0.15454     0.16886    
 0.17589     0.16886     0.15454     0.15151     0.18653     0.29382     0.48424     0.68221     0.80738     0.86366    
 0.67781     0.66000     0.60253     0.49770     0.35317     0.21479     0.13012     0.98021E-01 0.95998E-01 0.10490    
 0.10989     0.10489     0.95997E-01 0.98019E-01 0.13012     0.21478     0.35317     0.49770     0.60253     0.66000    
 0.40761     0.39687     0.36346     0.30382     0.21882     0.13098     0.72997E-01 0.49434E-01 0.46642E-01 0.52468E-01
 0.56163E-01 0.52468E-01 0.46641E-01 0.49434E-01 0.72996E-01 0.13097     0.21882     0.30382     0.36346     0.39687    
 0.23951     0.23506     0.21916     0.18557     0.13225     0.74587E-01 0.35883E-01 0.19871E-01 0.17002E-01 0.20050E-01
 0.22449E-01 0.20050E-01 0.17002E-01 0.19871E-01 0.35883E-01 0.74587E-01 0.13225     0.18557     0.21916     0.23506    
 0.18826     0.18542     0.17346     0.14523     0.10018     0.52898E-01 0.21452E-01 0.83952E-02 0.50976E-02 0.55631E-02
 0.64916E-02 0.55631E-02 0.50976E-02 0.83952E-02 0.21452E-01 0.52899E-01 0.10018     0.14523     0.17346     0.18542    
 0.20102     0.19786     0.18421     0.15250     0.10421     0.55034E-01 0.21128E-01 0.61286E-02 0.19879E-02 0.12569E-02
 0.12800E-02 0.12569E-02 0.19879E-02 0.61286E-02 0.21128E-01 0.55034E-01 0.10421     0.15250     0.18422     0.19787    
 0.24160     0.23777     0.22145     0.18425     0.12850     0.71334E-01 0.29154E-01 0.80059E-02 0.16255E-02 0.38429E-03
 0.21262E-03 0.38429E-03 0.16255E-02 0.80059E-02 0.29154E-01 0.71334E-01 0.12851     0.18426     0.22145     0.23777    
 0.28620     0.28177     0.26333     0.22157     0.15778     0.89971E-01 0.37580E-01 0.10222E-01 0.18987E-02 0.35720E-03
 0.16443E-03 0.35720E-03 0.18987E-02 0.10222E-01 0.37580E-01 0.89973E-01 0.15779     0.22158     0.26333     0.28177    
 0.32011     0.31512     0.29509     0.24981     0.17785     0.97723E-01 0.36945E-01 0.92502E-02 0.22287E-02 0.10337E-02
 0.93909E-03 0.10337E-02 0.22287E-02 0.92502E-02 0.36946E-01 0.97724E-01 0.17785     0.24982     0.29510     0.31513    
 0.33145     0.32593     0.30473     0.25684     0.17754     0.88631E-01 0.29730E-01 0.86639E-02 0.43308E-02 0.48849E-02
 0.61061E-02 0.48849E-02 0.43308E-02 0.86640E-02 0.29730E-01 0.88632E-01 0.17754     0.25685     0.30473     0.32594    
 0.30836     0.30200     0.27908     0.22929     0.14910     0.68915E-01 0.26063E-01 0.13522E-01 0.14261E-01 0.21945E-01
 0.27272E-01 0.21945E-01 0.14261E-01 0.13522E-01 0.26063E-01 0.68916E-01 0.14910     0.22929     0.27909     0.30200    
 0.24669     0.23843     0.21171     0.16258     0.99624E-01 0.52036E-01 0.32506E-01 0.33136E-01 0.48610E-01 0.69986E-01
 0.80044E-01 0.69986E-01 0.48609E-01 0.33136E-01 0.32506E-01 0.52037E-01 0.99625E-01 0.16258     0.21172     0.23843    
 0.16118     0.15056     0.12136     0.83929E-01 0.55578E-01 0.45971E-01 0.55578E-01 0.83930E-01 0.12136     0.15056    
 0.16118     0.15056     0.12136     0.83929E-01 0.55578E-01 0.45971E-01 0.55578E-01 0.83930E-01 0.12136     0.15056    
 0.80044E-01 0.69986E-01 0.48609E-01 0.33136E-01 0.32506E-01 0.52037E-01 0.99625E-01 0.16258     0.21172     0.23843    
 0.24669     0.23843     0.21171     0.16258     0.99624E-01 0.52036E-01 0.32506E-01 0.33136E-01 0.48610E-01 0.69986E-01
 0.27272E-01 0.21945E-01 0.14261E-01 0.13522E-01 0.26063E-01 0.68916E-01 0.14910     0.22929     0.27909     0.30200    
 0.30836     0.30200     0.27908     0.22929     0.14910     0.68915E-01 0.26063E-01 0.13522E-01 0.14261E-01 0.21945E-01
 0.61061E-02 0.48849E-02 0.43308E-02 0.86640E-02 0.29730E-01 0.88632E-01 0.17754     0.25685     0.30473     0.32594    
 0.33145     0.32593     0.30473     0.25684     0.17754     0.88631E-01 0.29730E-01 0.86639E-02 0.43308E-02 0.48849E-02
 0.93909E-03 0.10337E-02 0.22287E-02 0.92502E-02 0.36946E-01 0.97724E-01 0.17785     0.24982     0.29510     0.31513    
 0.32011     0.31512     0.29509     0.24981     0.17785     0.97723E-01 0.36945E-01 0.92502E-02 0.22287E-02 0.10337E-02
 0.16443E-03 0.35720E-03 0.18987E-02 0.10222E-01 0.37580E-01 0.89973E-01 0.15779     0.22158     0.26333     0.28177    
 0.28620     0.28177     0.26333     0.22157     0.15778     0.89971E-01 0.37580E-01 0.10222E-01 0.18987E-02 0.35720E-03
 0.21262E-03 0.38429E-03 0.16255E-02 0.80059E-02 0.29154E-01 0.71334E-01 0.12851     0.18426     0.22145     0.23777    
 0.24160     0.23777     0.22145     0.18425     0.12850     0.71334E-01 0.29154E-01 0.80059E-02 0.16255E-02 0.38429E-03
 0.12800E-02 0.12569E-02 0.19879E-02 0.61286E-02 0.21128E-01 0.55034E-01 0.10421     0.15250     0.18422     0.19787    
 0.20102     0.19786     0.18421     0.15250     0.10421     0.55034E-01 0.21128E-01 0.61286E-02 0.19879E-02 0.12569E-02
 0.64916E-02 0.55631E-02 0.50976E-02 0.83952E-02 0.21452E-01 0.52899E-01 0.10018     0.14523     0.17346     0.18542    
 0.18826     0.18542     0.17346     0.14523     0.10018     0.52898E-01 0.21452E-01 0.83952E-02 0.50976E-02 0.55631E-02
 0.22449E-01 0.20050E-01 0.17002E-01 0.19871E-01 0.35883E-01 0.74587E-01 0.13225     0.18557     0.21916     0.23506    
 0.23951     0.23506     0.21916     0.18557     0.13225     0.74587E-01 0.35883E-01 0.19871E-01 0.17002E-01 0.20050E-01
 0.56163E-01 0.52468E-01 0.46641E-01 0.49434E-01 0.72996E-01 0.13097     0.21882     0.30382     0.36346     0.39687    
 0.40761     0.39687     0.36346     0.30382     0.21882     0.13098     0.72997E-01 0.49434E-01 0.46642E-01 0.52468E-01
 0.10989     0.10489     0.95997E-01 0.98019E-01 0.13012     0.21478     0.35317     0.49770     0.60253     0.66000    
 0.67781     0.66000     0.60253     0.49770     0.35317     0.21479     0.13012     0.98021E-01 0.95998E-01 0.10490    
 0.17589     0.16886     0.15454     0.15151     0.18653     0.29382     0.48424     0.68221     0.80738     0.86366    
 0.87887     0.86366     0.80738     0.68221     0.48424     0.29383     0.18654     0.15151     0.15454     0.16886    
 0.23283     0.22356     0.20288     0.19228     0.22554     0.34777     0.57457     0.79362     0.90726     0.94798    
 0.95751     0.94798     0.90726     0.79362     0.57457     0.34778     0.22555     0.19229     0.20288     0.22356    
 0.26509     0.25441     0.22961     0.21384     0.24548     0.37687     0.62310     0.84411     0.94341     0.97385    
 0.98026     0.97385     0.94341     0.84411     0.62310     0.37688     0.24548     0.21384     0.22961     0.25441    
 0.27446     0.26335     0.23731     0.21998     0.25125     0.38594     0.63813     0.85806     0.95212     0.97946    
 0.98500     0.97946     0.95212     0.85806     0.63813     0.38595     0.25126     0.21999     0.23732     0.26335    
 0.26509     0.25441     0.22961     0.21384     0.24548     0.37687     0.62310     0.84411     0.94341     0.97385    
 0.98026     0.97385     0.94341     0.84411     0.62310     0.37688     0.24548     0.21384     0.22961     0.25441    
 0.23283     0.22356     0.20288     0.19228     0.22554     0.34777     0.57457     0.79362     0.90726     0.94798    
 0.95751     0.94798     0.90726     0.79362     0.57457     0.34778     0.22555     0.19229     0.20288     0.22356    
 0.17589     0.16886     0.15454     0.15151     0.18653     0.29382     0.48424     0.68221     0.80738     0.86366    
 0.87887     0.86366     0.80738     0.68221     0.48424     0.29383     0.18654     0.15151     0.15454     0.16886    
 0.10989     0.10489     0.95997E-01 0.98019E-01 0.13012     0.21478     0.35317     0.49770     0.60253     0.66000    
 0.67781     0.66000     0.60253     0.49770     0.35317     0.21479     0.13012     0.98021E-01 0.95998E-01 0.10490    
 0.56163E-01 0.52468E-01 0.46641E-01 0.49434E-01 0.72996E-01 0.13097     0.21882     0.30382     0.36346     0.39687    
 0.40761     0.39687     0.36346     0.30382     0.21882     0.13098     0.72997E-01 0.49434E-01 0.46642E-01 0.52468E-01
 0.22449E-01 0.20050E-01 0.17002E-01 0.19871E-01 0.35883E-01 0.74587E-01 0.13225     0.18557     0.21916     0.23506    
 0.23951     0.23506     0.21916     0.18557     0.13225     0.74587E-01 0.35883E-01 0.19871E-01 0.17002E-01 0.20050E-01
 0.64916E-02 0.55631E-02 0.50976E-02 0.83952E-02 0.21452E-01 0.52899E-01 0.10018     0.14523     0.17346     0.18542    
 0.18826     0.18542     0.17346     0.14523     0.10018     0.52898E-01 0.21452E-01 0.83952E-02 0.50976E-02 0.55631E-02
 0.12800E-02 0.12569E-02 0.19879E-02 0.61286E-02 0.21128E-01 0.55034E-01 0.10421     0.15250     0.18422     0.19787    
 0.20102     0.19786     0.18421     0.15250     0.10421     0.55034E-01 0.21128E-01 0.61286E-02 0.19879E-02 0.12569E-02
 0.21262E-03 0.38429E-03 0.16255E-02 0.80059E-02 0.29154E-01 0.71334E-01 0.12851     0.18426     0.22145     0.23777    
 0.24160     0.23777     0.22145     0.18425     0.12850     0.71334E-01 0.29154E-01 0.80059E-02 0.16255E-02 0.38429E-03
 0.16443E-03 0.35720E-03 0.18987E-02 0.10222E-01 0.37580E-01 0.89973E-01 0.15779     0.22158     0.26333     0.28177    
 0.28620     0.28177     0.26333     0.22157     0.15778     0.89971E-01 0.37580E-01 0.10222E-01 0.18987E-02 0.35720E-03
 0.93909E-03 0.10337E-02 0.22287E-02 0.92502E-02 0.36946E-01 0.97724E-01 0.17785     0.24982     0.29510     0.31513    
 0.32011     0.31512     0.29509     0.24981     0.17785     0.97723E-01 0.36945E-01 0.92502E-02 0.22287E-02 0.10337E-02
 0.61061E-02 0.48849E-02 0.43308E-02 0.86640E-02 0.29730E-01 0.88632E-01 0.17754     0.25685     0.30473     0.32594    
 0.33145     0.32593     0.30473     0.25684     0.17754     0.88631E-01 0.29730E-01 0.86639E-02 0.43308E-02 0.48849E-02
 0.27272E-01 0.21945E-01 0.14261E-01 0.13522E-01 0.26063E-01 0.68916E-01 0.14910     0.22929     0.27909     0.30200    
 0.30836     0.30200     0.27908     0.22929     0.14910     0.68915E-01 0.26063E-01 0.13522E-01 0.14261E-01 0.21945E-01
 0.80044E-01 0.69986E-01 0.48609E-01 0.33136E-01 0.32506E-01 0.52037E-01 0.99625E-01 0.16258     0.21172     0.23843    
 0.24669     0.23843     0.21171     0.16258     0.99624E-01 0.52036E-01 0.32506E-01 0.33136E-01 0.48610E-01 0.69986E-01
 0.16118     0.15056     0.12136     0.83929E-01 0.55578E-01 0.45971E-01 0.55578E-01 0.83930E-01 0.12136     0.15056    
 0.16118     0.15056     0.12136     0.83929E-01 0.55578E-01 0.45971E-01 0.55578E-01 0.83930E-01 0.12136     0.15056    
 0.24669     0.23843     0.21171     0.16258     0.99624E-01 0.52036E-01 0.32506E-01 0.33136E-01 0.48610E-01 0.69986E-01
 0.80044E-01 0.69986E-01 0.48609E-01 0.33136E-01 0.32506E-01 0.52037E-01 0.99625E-01 0.16258     0.21172     0.23843    
 0.30836     0.30200     0.27908     0.22929     0.14910     0.68915E-01 0.26063E-01 0.13522E-01 0.14261E-01 0.21945E-01
 0.27272E-01 0.21945E-01 0.14261E-01 0.13522E-01 0.26063E-01 0.68916E-01 0.14910     0.22929     0.27909     0.30200    
 0.33145     0.32593     0.30473     0.25684     0.17754     0.88631E-01 0.29730E-01 0.86639E-02 0.43308E-02 0.48849E-02
 0.61061E-02 0.48849E-02 0.43308E-02 0.86640E-02 0.29730E-01 0.88632E-01 0.17754     0.25685     0.30473     0.32594    
 0.32011     0.31512     0.29509     0.24981     0.17785     0.97723E-01 0.36945E-01 0.92502E-02 0.22287E-02 0.10337E-02
 0.93909E-03 0.10337E-02 0.22287E-02 0.92502E-02 0.36946E-01 0.97724E-01 0.17785     0.24982     0.29510     0.31513    
 0.28620     0.28177     0.26333     0.22157     0.15778     0.89971E-01 0.37580E-01 0.10222E-01 0.18987E-02 0.35720E-03
 0.16443E-03 0.35720E-03 0.18987E-02 0.10222E-01 0.37580E-01 0.89973E-01 0.15779     0.22158     0.26333     0.28177    
 0.24160     0.23777     0.22145     0.18425     0.12850     0.71334E-01 0.29154E-01 0.80059E-02 0.16255E-02 0.38429E-03
 0.21262E-03 0.38429E-03 0.16255E-02 0.80059E-02 0.29154E-01 0.71334E-01 0.12851     0.18426     0.22145     0.23777    
 0.20102     0.19786     0.18421     0.15250     0.10421     0.55034E-01 0.21128E-01 0.61286E-02 0.19879E-02 0.12569E-02
 0.12800E-02 0.12569E-02 0.19879E-02 0.61286E-02 0.21128E-01 0.55034E-01 0.10421     0.15250     0.18422     0.19787    
 0.18826     0.18542     0.17346     0.14523     0.10018     0.52898E-01 0.21452E-01 0.83952E-02 0.50976E-02 0.55631E-02
 0.64916E-02 0.55631E-02 0.50976E-02 0.83952E-02 0.21452E-01 0.52899E-01 0.10018     0.14523     0.17346     0.18542    
 0.23951     0.23506     0.21916     0.18557     0.13225     0.74587E-01 0.35883E-01 0.19871E-01 0.17002E-01 0.20050E-01
 0.22449E-01 0.20050E-01 0.17002E-01 0.19871E-01 0.35883E-01 0.74587E-01 0.13225     0.18557     0.21916     0.23506    
 0.40761     0.39687     0.36346     0.30382     0.21882     0.13098     0.72997E-01 0.49434E-01 0.46642E-01 0.52468E-01
 0.56163E-01 0.52468E-01 0.46641E-01 0.49434E-01 0.72996E-01 0.13097     0.21882     0.30382     0.36346     0.39687    
 0.67781     0.66000     0.60253     0.49770     0.35317     0.21479     0.13012     0.98021E-01 0.95998E-01 0.10490    
 0.10989     0.10489     0.95997E-01 0.98019E-01 0.13012     0.21478     0.35317     0.49770     0.60253     0.66000    
 0.87887     0.86366     0.80738     0.68221     0.48424     0.29383     0.18654     0.15151     0.15454     0.16886    
 0.17589     0.16886     0.15454     0.15151     0.18653     0.29382     0.48424     0.68221     0.80738     0.86366    
 0.95751     0.94798     0.90726     0.79362     0.57457     0.34778     0.22555     0.19229     0.20288     0.22356    
 0.23283     0.22356     0.20288     0.19228     0.22554     0.34777     0.57457     0.79362     0.90726     0.94798    
 0.98026     0.97385     0.94341     0.84411     0.62310     0.37688     0.24548     0.21384     0.22961     0.25441    
 0.26509     0.25441     0.22961     0.21384     0.24548     0.37687     0.62310     0.84411     0.94341     0.97385    
 0.97041     0.95667     0.89258     0.72473     0.49560     0.35576     0.34981     0.44253     0.55572     0.62609    
 0.64769     0.62608     0.55572     0.44252     0.34980     0.35575     0.49560     0.72472     0.89257     0.95667    