elf                                     
   1.00000000000000     
     6.653297    0.000000    0.000000
     0.000000    4.401421    0.000000
     0.000000    0.000000    1.836613
   Mg   Si   O 
     8     2     6
Direct
  0.137069  0.293439  0.000000
  0.137069  0.706561  0.000000
  0.862931  0.706561  0.000000
  0.862931  0.293439  0.000000
  0.637069  0.793439  0.000000
  0.637069  0.206561  0.000000
  0.362931  0.206561  0.000000
  0.362931  0.793439  0.000000
  0.000000  0.000000  0.500000
  0.500000  0.500000  0.500000
  0.220045  0.000000  0.500000
  0.779955  0.000000  0.500000
  0.000000  0.500000  0.500000
  0.720045  0.500000  0.500000
  0.279955  0.500000  0.500000
  0.500000  0.000000  0.500000
 
   50   32   14
 0.79626     0.79055     0.76864     0.71627     0.61418     0.46120     0.30620     0.20567     0.16267     0.15558    
 0.16818     0.18995     0.21138     0.22259     0.21381     0.17622     0.11052     0.50087E-01 0.27804E-01 0.36757E-01
 0.75184E-01 0.12897     0.17445     0.20428     0.22034     0.22534     0.22034     0.20428     0.17445     0.12897    
 0.75184E-01 0.36757E-01 0.27804E-01 0.50087E-01 0.11052     0.17622     0.21381     0.22259     0.21138     0.18995    
 0.16818     0.15558     0.16267     0.20567     0.30620     0.46120     0.61418     0.71627     0.76864     0.79055    
 0.81752     0.81153     0.78869     0.73415     0.62678     0.46467     0.30190     0.19899     0.15669     0.15108    
 0.16469     0.18568     0.20372     0.20979     0.19661     0.15842     0.97334E-01 0.43038E-01 0.23362E-01 0.31104E-01
 0.65216E-01 0.11451     0.15860     0.19043     0.20967     0.21617     0.20967     0.19043     0.15860     0.11451    
 0.65216E-01 0.31104E-01 0.23362E-01 0.43038E-01 0.97334E-01 0.15842     0.19661     0.20979     0.20372     0.18568    
 0.16469     0.15108     0.15669     0.19899     0.30190     0.46467     0.62678     0.73415     0.78869     0.81153    
 0.86002     0.85337     0.82840     0.76860     0.64744     0.46095     0.27972     0.17409     0.13560     0.13439    
 0.15071     0.16998     0.18034     0.17538     0.15408     0.11681     0.67328E-01 0.27321E-01 0.13742E-01 0.18824E-01
 0.42904E-01 0.80796E-01 0.11930     0.15316     0.17825     0.18783     0.17825     0.15316     0.11930     0.80796E-01
 0.42904E-01 0.18824E-01 0.13742E-01 0.27321E-01 0.67328E-01 0.11681     0.15408     0.17538     0.18034     0.16998    
 0.15071     0.13439     0.13560     0.17409     0.27972     0.46095     0.64744     0.76860     0.82840     0.85337    
 0.89077     0.88309     0.85463     0.78619     0.64351     0.42314     0.22595     0.12732     0.98109E-01 0.10256    
 0.12120     0.13820     0.14144     0.12843     0.10407     0.72396E-01 0.37447E-01 0.13007E-01 0.56940E-02 0.82714E-02
 0.21693E-01 0.45181E-01 0.72720E-01 0.10224     0.12849     0.13955     0.12849     0.10224     0.72720E-01 0.45181E-01
 0.21693E-01 0.82714E-02 0.56940E-02 0.13007E-01 0.37447E-01 0.72396E-01 0.10407     0.12843     0.14144     0.13820    
 0.12120     0.10256     0.98109E-01 0.12732     0.22595     0.42314     0.64351     0.78619     0.85463     0.88309    
 0.89731     0.88747     0.85168     0.76681     0.59180     0.33832     0.14745     0.72078E-01 0.55552E-01 0.63282E-01
 0.80335E-01 0.93186E-01 0.92378E-01 0.78759E-01 0.58812E-01 0.36943E-01 0.16835E-01 0.49140E-02 0.18002E-02 0.28153E-02
 0.83989E-02 0.18777E-01 0.32942E-01 0.51628E-01 0.71193E-01 0.80173E-01 0.71193E-01 0.51628E-01 0.32942E-01 0.18777E-01
 0.83989E-02 0.28153E-02 0.18002E-02 0.49140E-02 0.16835E-01 0.36943E-01 0.58812E-01 0.78759E-01 0.92378E-01 0.93186E-01
 0.80335E-01 0.63282E-01 0.55552E-01 0.72078E-01 0.14745     0.33832     0.59180     0.76681     0.85168     0.88747    
 0.87618     0.86188     0.81120     0.69678     0.48122     0.22138     0.73552E-01 0.30141E-01 0.23745E-01 0.30580E-01
 0.41977E-01 0.48888E-01 0.46376E-01 0.36818E-01 0.24921E-01 0.13922E-01 0.57831E-02 0.15566E-02 0.49673E-03 0.80763E-03
 0.24445E-02 0.56316E-02 0.11267E-01 0.20894E-01 0.32697E-01 0.38520E-01 0.32697E-01 0.20894E-01 0.11267E-01 0.56316E-02
 0.24445E-02 0.80763E-03 0.49673E-03 0.15566E-02 0.57831E-02 0.13922E-01 0.24921E-01 0.36818E-01 0.46376E-01 0.48888E-01
 0.41977E-01 0.30580E-01 0.23745E-01 0.30141E-01 0.73552E-01 0.22138     0.48122     0.69678     0.81120     0.86188    
 0.81133     0.78856     0.71128     0.55486     0.31814     0.11209     0.28077E-01 0.94500E-02 0.76632E-02 0.11261E-01
 0.16385E-01 0.18577E-01 0.16324E-01 0.11618E-01 0.68349E-02 0.33360E-02 0.13317E-02 0.40193E-03 0.14941E-03 0.27654E-03
 0.89909E-03 0.25584E-02 0.67356E-02 0.15542E-01 0.27425E-01 0.33482E-01 0.27425E-01 0.15542E-01 0.67356E-02 0.25584E-02
 0.89909E-03 0.27654E-03 0.14941E-03 0.40193E-03 0.13317E-02 0.33360E-02 0.68349E-02 0.11618E-01 0.16324E-01 0.18577E-01
 0.16385E-01 0.11261E-01 0.76632E-02 0.94500E-02 0.28077E-01 0.11209     0.31814     0.55486     0.71128     0.78856    
 0.65023     0.61443     0.50411     0.32826     0.14822     0.42558E-01 0.87937E-02 0.24409E-02 0.19514E-02 0.29901E-02
 0.42612E-02 0.46776E-02 0.39981E-02 0.27424E-02 0.15497E-02 0.76059E-03 0.35101E-03 0.16720E-03 0.14530E-03 0.46521E-03
 0.19278E-02 0.66920E-02 0.19688E-01 0.46074E-01 0.78609E-01 0.94059E-01 0.78609E-01 0.46074E-01 0.19688E-01 0.66920E-02
 0.19278E-02 0.46521E-03 0.14530E-03 0.16720E-03 0.35101E-03 0.76059E-03 0.15497E-02 0.27424E-02 0.39981E-02 0.46776E-02
 0.42612E-02 0.29901E-02 0.19514E-02 0.24409E-02 0.87937E-02 0.42558E-01 0.14822     0.32826     0.50411     0.61443    
 0.33925     0.30229     0.20862     0.10656     0.39840E-01 0.10974E-01 0.22671E-02 0.56853E-03 0.42855E-03 0.61674E-03
 0.90869E-03 0.12265E-02 0.14497E-02 0.14497E-02 0.12265E-02 0.90869E-03 0.61674E-03 0.42855E-03 0.56853E-03 0.22671E-02
 0.10974E-01 0.39840E-01 0.10656     0.20862     0.30229     0.33925     0.30229     0.20862     0.10656     0.39840E-01
 0.10974E-01 0.22671E-02 0.56853E-03 0.42855E-03 0.61674E-03 0.90869E-03 0.12265E-02 0.14497E-02 0.14497E-02 0.12265E-02
 0.90869E-03 0.61674E-03 0.42855E-03 0.56853E-03 0.22671E-02 0.10974E-01 0.39840E-01 0.10656     0.20862     0.30229    
 0.94059E-01 0.78609E-01 0.46074E-01 0.19688E-01 0.66920E-02 0.19278E-02 0.46521E-03 0.14530E-03 0.16720E-03 0.35101E-03
 0.76059E-03 0.15497E-02 0.27424E-02 0.39981E-02 0.46776E-02 0.42612E-02 0.29901E-02 0.19514E-02 0.24409E-02 0.87937E-02
 0.42558E-01 0.14822     0.32826     0.50411     0.61443     0.65023     0.61443     0.50411     0.32826     0.14822    
 0.42558E-01 0.87937E-02 0.24409E-02 0.19514E-02 0.29901E-02 0.42612E-02 0.46776E-02 0.39981E-02 0.27424E-02 0.15497E-02
 0.76059E-03 0.35101E-03 0.16720E-03 0.14530E-03 0.46521E-03 0.19278E-02 0.66920E-02 0.19688E-01 0.46074E-01 0.78609E-01
 0.33482E-01 0.27425E-01 0.15542E-01 0.67356E-02 0.25584E-02 0.89909E-03 0.27654E-03 0.14941E-03 0.40193E-03 0.13317E-02
 0.33360E-02 0.68349E-02 0.11618E-01 0.16324E-01 0.18577E-01 0.16385E-01 0.11261E-01 0.76632E-02 0.94500E-02 0.28077E-01
 0.11209     0.31814     0.55486     0.71128     0.78856     0.81133     0.78856     0.71128     0.55486     0.31814    
 0.11209     0.28077E-01 0.94500E-02 0.76632E-02 0.11261E-01 0.16385E-01 0.18577E-01 0.16324E-01 0.11618E-01 0.68349E-02
 0.33360E-02 0.13317E-02 0.40193E-03 0.14941E-03 0.27654E-03 0.89909E-03 0.25584E-02 0.67356E-02 0.15542E-01 0.27425E-01
 0.38520E-01 0.32697E-01 0.20894E-01 0.11267E-01 0.56316E-02 0.24445E-02 0.80763E-03 0.49673E-03 0.15566E-02 0.57831E-02
 0.13922E-01 0.24921E-01 0.36818E-01 0.46376E-01 0.48888E-01 0.41977E-01 0.30580E-01 0.23745E-01 0.30141E-01 0.73552E-01
 0.22138     0.48122     0.69678     0.81120     0.86188     0.87618     0.86188     0.81120     0.69678     0.48122    
 0.22138     0.73552E-01 0.30141E-01 0.23745E-01 0.30580E-01 0.41977E-01 0.48888E-01 0.46376E-01 0.36818E-01 0.24921E-01
 0.13922E-01 0.57831E-02 0.15566E-02 0.49673E-03 0.80763E-03 0.24445E-02 0.56316E-02 0.11267E-01 0.20894E-01 0.32697E-01
 0.80173E-01 0.71193E-01 0.51628E-01 0.32942E-01 0.18777E-01 0.83989E-02 0.28153E-02 0.18002E-02 0.49140E-02 0.16835E-01
 0.36943E-01 0.58812E-01 0.78759E-01 0.92378E-01 0.93186E-01 0.80335E-01 0.63282E-01 0.55552E-01 0.72078E-01 0.14745    
 0.33832     0.59180     0.76681     0.85168     0.88747     0.89731     0.88747     0.85168     0.76681     0.59180    
 0.33832     0.14745     0.72078E-01 0.55552E-01 0.63282E-01 0.80335E-01 0.93186E-01 0.92378E-01 0.78759E-01 0.58812E-01
 0.36943E-01 0.16835E-01 0.49140E-02 0.18002E-02 0.28153E-02 0.83989E-02 0.18777E-01 0.32942E-01 0.51628E-01 0.71193E-01
 0.13955     0.12849     0.10224     0.72720E-01 0.45181E-01 0.21693E-01 0.82714E-02 0.56940E-02 0.13007E-01 0.37447E-01
 0.72396E-01 0.10407     0.12843     0.14144     0.13820     0.12120     0.10256     0.98109E-01 0.12732     0.22595    
 0.42314     0.64351     0.78619     0.85463     0.88309     0.89077     0.88309     0.85463     0.78619     0.64351    
 0.42314     0.22595     0.12732     0.98109E-01 0.10256     0.12120     0.13820     0.14144     0.12843     0.10407    
 0.72396E-01 0.37447E-01 0.13007E-01 0.56940E-02 0.82714E-02 0.21693E-01 0.45181E-01 0.72720E-01 0.10224     0.12849    
 0.18783     0.17825     0.15316     0.11930     0.80796E-01 0.42904E-01 0.18824E-01 0.13742E-01 0.27321E-01 0.67328E-01
 0.11681     0.15408     0.17538     0.18034     0.16998     0.15071     0.13439     0.13560     0.17409     0.27972    
 0.46095     0.64744     0.76860     0.82840     0.85337     0.86002     0.85337     0.82840     0.76860     0.64744    
 0.46095     0.27972     0.17409     0.13560     0.13439     0.15071     0.16998     0.18034     0.17538     0.15408    
 0.11681     0.67328E-01 0.27321E-01 0.13742E-01 0.18824E-01 0.42904E-01 0.80796E-01 0.11930     0.15316     0.17825    
 0.21617     0.20967     0.19043     0.15860     0.11451     0.65216E-01 0.31104E-01 0.23362E-01 0.43038E-01 0.97334E-01
 0.15842     0.19661     0.20979     0.20372     0.18568     0.16469     0.15108     0.15669     0.19899     0.30190    
 0.46467     0.62678     0.73415     0.78869     0.81153     0.81752     0.81153     0.78869     0.73415     0.62678    
 0.46467     0.30190     0.19899     0.15669     0.15108     0.16469     0.18568     0.20372     0.20979     0.19661    
 0.15842     0.97334E-01 0.43038E-01 0.23362E-01 0.31104E-01 0.65216E-01 0.11451     0.15860     0.19043     0.20967    
 0.22534     0.22034     0.20428     0.17445     0.12897     0.75184E-01 0.36757E-01 0.27804E-01 0.50087E-01 0.11052    
 0.17622     0.21381     0.22259     0.21138     0.18995     0.16818     0.15558     0.16267     0.20567     0.30620    
 0.46120     0.61418     0.71627     0.76864     0.79055     0.79626     0.79055     0.76864     0.71627     0.61418    
 0.46120     0.30620     0.20567     0.16267     0.15558     0.16818     0.18995     0.21138     0.22259     0.21381    
 0.17622     0.11052     0.50087E-01 0.27804E-01 0.36757E-01 0.75184E-01 0.12897     0.17445     0.20428     0.22034    
 0.21617     0.20967     0.19043     0.15860     0.11451     0.65216E-01 0.31104E-01 0.23362E-01 0.43038E-01 0.97334E-01
 0.15842     0.19661     0.20979     0.20372     0.18568     0.16469     0.15108     0.15669     0.19899     0.30190    
 0.46467     0.62678     0.73415     0.78869     0.81153     0.81752     0.81153     0.78869     0.73415     0.62678    
 0.46467     0.30190     0.19899     0.15669     0.15108     0.16469     0.18568     0.20372     0.20979     0.19661    
 0.15842     0.97334E-01 0.43038E-01 0.23362E-01 0.31104E-01 0.65216E-01 0.11451     0.15860     0.19043     0.20967    
 0.18783     0.17825     0.15316     0.11930     0.80796E-01 0.42904E-01 0.18824E-01 0.13742E-01 0.27321E-01 0.67328E-01
 0.11681     0.15408     0.17538     0.18034     0.16998     0.15071     0.13439     0.13560     0.17409     0.27972    
 0.46095     0.64744     0.76860     0.82840     0.85337     0.86002     0.85337     0.82840     0.76860     0.64744    
 0.46095     0.27972     0.17409     0.13560     0.13439     0.15071     0.16998     0.18034     0.17538     0.15408    
 0.11681     0.67328E-01 0.27321E-01 0.13742E-01 0.18824E-01 0.42904E-01 0.80796E-01 0.11930     0.15316     0.17825    
 0.13955     0.12849     0.10224     0.72720E-01 0.45181E-01 0.21693E-01 0.82714E-02 0.56940E-02 0.13007E-01 0.37447E-01
 0.72396E-01 0.10407     0.12843     0.14144     0.13820     0.12120     0.10256     0.98109E-01 0.12732     0.22595    
 0.42314     0.64351     0.78619     0.85463     0.88309     0.89077     0.88309     0.85463     0.78619     0.64351    
 0.42314     0.22595     0.12732     0.98109E-01 0.10256     0.12120     0.13820     0.14144     0.12843     0.10407    
 0.72396E-01 0.37447E-01 0.13007E-01 0.56940E-02 0.82714E-02 0.21693E-01 0.45181E-01 0.72720E-01 0.10224     0.12849    
 0.80173E-01 0.71193E-01 0.51628E-01 0.32942E-01 0.18777E-01 0.83989E-02 0.28153E-02 0.18002E-02 0.49140E-02 0.16835E-01
 0.36943E-01 0.58812E-01 0.78759E-01 0.92378E-01 0.93186E-01 0.80335E-01 0.63282E-01 0.55552E-01 0.72078E-01 0.14745    
 0.33832     0.59180     0.76681     0.85168     0.88747     0.89731     0.88747     0.85168     0.76681     0.59180    
 0.33832     0.14745     0.72078E-01 0.55552E-01 0.63282E-01 0.80335E-01 0.93186E-01 0.92378E-01 0.78759E-01 0.58812E-01
 0.36943E-01 0.16835E-01 0.49140E-02 0.18002E-02 0.28153E-02 0.83989E-02 0.18777E-01 0.32942E-01 0.51628E-01 0.71193E-01
 0.38520E-01 0.32697E-01 0.20894E-01 0.11267E-01 0.56316E-02 0.24445E-02 0.80763E-03 0.49673E-03 0.15566E-02 0.57831E-02
 0.13922E-01 0.24921E-01 0.36818E-01 0.46376E-01 0.48888E-01 0.41977E-01 0.30580E-01 0.23745E-01 0.30141E-01 0.73552E-01
 0.22138     0.48122     0.69678     0.81120     0.86188     0.87618     0.86188     0.81120     0.69678     0.48122    
 0.22138     0.73552E-01 0.30141E-01 0.23745E-01 0.30580E-01 0.41977E-01 0.48888E-01 0.46376E-01 0.36818E-01 0.24921E-01
 0.13922E-01 0.57831E-02 0.15566E-02 0.49673E-03 0.80763E-03 0.24445E-02 0.56316E-02 0.11267E-01 0.20894E-01 0.32697E-01
 0.33482E-01 0.27425E-01 0.15542E-01 0.67356E-02 0.25584E-02 0.89909E-03 0.27654E-03 0.14941E-03 0.40193E-03 0.13317E-02
 0.33360E-02 0.68349E-02 0.11618E-01 0.16324E-01 0.18577E-01 0.16385E-01 0.11261E-01 0.76632E-02 0.94500E-02 0.28077E-01
 0.11209     0.31814     0.55486     0.71128     0.78856     0.81133     0.78856     0.71128     0.55486     0.31814    
 0.11209     0.28077E-01 0.94500E-02 0.76632E-02 0.11261E-01 0.16385E-01 0.18577E-01 0.16324E-01 0.11618E-01 0.68349E-02
 0.33360E-02 0.13317E-02 0.40193E-03 0.14941E-03 0.27654E-03 0.89909E-03 0.25584E-02 0.67356E-02 0.15542E-01 0.27425E-01
 0.94059E-01 0.78609E-01 0.46074E-01 0.19688E-01 0.66920E-02 0.19278E-02 0.46521E-03 0.14530E-03 0.16720E-03 0.35101E-03
 0.76059E-03 0.15497E-02 0.27424E-02 0.39981E-02 0.46776E-02 0.42612E-02 0.29901E-02 0.19514E-02 0.24409E-02 0.87937E-02
 0.42558E-01 0.14822     0.32826     0.50411     0.61443     0.65023     0.61443     0.50411     0.32826     0.14822    
 0.42558E-01 0.87937E-02 0.24409E-02 0.19514E-02 0.29901E-02 0.42612E-02 0.46776E-02 0.39981E-02 0.27424E-02 0.15497E-02
 0.76059E-03 0.35101E-03 0.16720E-03 0.14530E-03 0.46521E-03 0.19278E-02 0.66920E-02 0.19688E-01 0.46074E-01 0.78609E-01
 0.33925     0.30229     0.20862     0.10656     0.39840E-01 0.10974E-01 0.22671E-02 0.56853E-03 0.42855E-03 0.61674E-03
 0.90869E-03 0.12265E-02 0.14497E-02 0.14497E-02 0.12265E-02 0.90869E-03 0.61674E-03 0.42855E-03 0.56853E-03 0.22671E-02
 0.10974E-01 0.39840E-01 0.10656     0.20862     0.30229     0.33925     0.30229     0.20862     0.10656     0.39840E-01
 0.10974E-01 0.22671E-02 0.56853E-03 0.42855E-03 0.61674E-03 0.90869E-03 0.12265E-02 0.14497E-02 0.14497E-02 0.12265E-02
 0.90869E-03 0.61674E-03 0.42855E-03 0.56853E-03 0.22671E-02 0.10974E-01 0.39840E-01 0.10656     0.20862     0.30229    
 0.65023     0.61443     0.50411     0.32826     0.14822     0.42558E-01 0.87937E-02 0.24409E-02 0.19514E-02 0.29901E-02
 0.42612E-02 0.46776E-02 0.39981E-02 0.27424E-02 0.15497E-02 0.76059E-03 0.35101E-03 0.16720E-03 0.14530E-03 0.46521E-03
 0.19278E-02 0.66920E-02 0.19688E-01 0.46074E-01 0.78609E-01 0.94059E-01 0.78609E-01 0.46074E-01 0.19688E-01 0.66920E-02
 0.19278E-02 0.46521E-03 0.14530E-03 0.16720E-03 0.35101E-03 0.76059E-03 0.15497E-02 0.27424E-02 0.39981E-02 0.46776E-02
 0.42612E-02 0.29901E-02 0.19514E-02 0.24409E-02 0.87937E-02 0.42558E-01 0.14822     0.32826     0.50411     0.61443    
 0.81133     0.78856     0.71128     0.55486     0.31814     0.11209     0.28077E-01 0.94500E-02 0.76632E-02 0.11261E-01
 0.16385E-01 0.18577E-01 0.16324E-01 0.11618E-01 0.68349E-02 0.33360E-02 0.13317E-02 0.40193E-03 0.14941E-03 0.27654E-03
 0.89909E-03 0.25584E-02 0.67356E-02 0.15542E-01 0.27425E-01 0.33482E-01 0.27425E-01 0.15542E-01 0.67356E-02 0.25584E-02
 0.89909E-03 0.27654E-03 0.14941E-03 0.40193E-03 0.13317E-02 0.33360E-02 0.68349E-02 0.11618E-01 0.16324E-01 0.18577E-01
 0.16385E-01 0.11261E-01 0.76632E-02 0.94500E-02 0.28077E-01 0.11209     0.31814     0.55486     0.71128     0.78856    
 0.87618     0.86188     0.81120     0.69678     0.48122     0.22138     0.73552E-01 0.30141E-01 0.23745E-01 0.30580E-01
 0.41977E-01 0.48888E-01 0.46376E-01 0.36818E-01 0.24921E-01 0.13922E-01 0.57831E-02 0.15566E-02 0.49673E-03 0.80763E-03
 0.24445E-02 0.56316E-02 0.11267E-01 0.20894E-01 0.32697E-01 0.38520E-01 0.32697E-01 0.20894E-01 0.11267E-01 0.56316E-02
 0.24445E-02 0.80763E-03 0.49673E-03 0.15566E-02 0.57831E-02 0.13922E-01 0.24921E-01 0.36818E-01 0.46376E-01 0.48888E-01
 0.41977E-01 0.30580E-01 0.23745E-01 0.30141E-01 0.73552E-01 0.22138     0.48122     0.69678     0.81120     0.86188    
 0.89731     0.88747     0.85168     0.76681     0.59180     0.33832     0.14745     0.72078E-01 0.55552E-01 0.63282E-01
 0.80335E-01 0.93186E-01 0.92378E-01 0.78759E-01 0.58812E-01 0.36943E-01 0.16835E-01 0.49140E-02 0.18002E-02 0.28153E-02
 0.83989E-02 0.18777E-01 0.32942E-01 0.51628E-01 0.71193E-01 0.80173E-01 0.71193E-01 0.51628E-01 0.32942E-01 0.18777E-01
 0.83989E-02 0.28153E-02 0.18002E-02 0.49140E-02 0.16835E-01 0.36943E-01 0.58812E-01 0.78759E-01 0.92378E-01 0.93186E-01
 0.80335E-01 0.63282E-01 0.55552E-01 0.72078E-01 0.14745     0.33832     0.59180     0.76681     0.85168     0.88747    
 0.89077     0.88309     0.85463     0.78619     0.64351     0.42314     0.22595     0.12732     0.98109E-01 0.10256    
 0.12120     0.13820     0.14144     0.12843     0.10407     0.72396E-01 0.37447E-01 0.13007E-01 0.56940E-02 0.82714E-02
 0.21693E-01 0.45181E-01 0.72720E-01 0.10224     0.12849     0.13955     0.12849     0.10224     0.72720E-01 0.45181E-01
 0.21693E-01 0.82714E-02 0.56940E-02 0.13007E-01 0.37447E-01 0.72396E-01 0.10407     0.12843     0.14144     0.13820    
 0.12120     0.10256     0.98109E-01 0.12732     0.22595     0.42314     0.64351     0.78619     0.85463     0.88309    
 0.86002     0.85337     0.82840     0.76860     0.64744     0.46095     0.27972     0.17409     0.13560     0.13439    
 0.15071     0.16998     0.18034     0.17538     0.15408     0.11681     0.67328E-01 0.27321E-01 0.13742E-01 0.18824E-01
 0.42904E-01 0.80796E-01 0.11930     0.15316     0.17825     0.18783     0.17825     0.15316     0.11930     0.80796E-01
 0.42904E-01 0.18824E-01 0.13742E-01 0.27321E-01 0.67328E-01 0.11681     0.15408     0.17538     0.18034     0.16998    
 0.15071     0.13439     0.13560     0.17409     0.27972     0.46095     0.64744     0.76860     0.82840     0.85337    
 0.81752     0.81153     0.78869     0.73415     0.62678     0.46467     0.30190     0.19899     0.15669     0.15108    
 0.16469     0.18568     0.20372     0.20979     0.19661     0.15842     0.97334E-01 0.43038E-01 0.23362E-01 0.31104E-01
 0.65216E-01 0.11451     0.15860     0.19043     0.20967     0.21617     0.20967     0.19043     0.15860     0.11451    
 0.65216E-01 0.31104E-01 0.23362E-01 0.43038E-01 0.97334E-01 0.15842     0.19661     0.20979     0.20372     0.18568    
 0.16469     0.15108     0.15669     0.19899     0.30190     0.46467     0.62678     0.73415     0.78869     0.81153    
 0.76812     0.76102     0.73492     0.67694     0.57372     0.43400     0.30830     0.24225     0.23445     0.26301    
 0.30653     0.34831     0.37516     0.37647     0.34379     0.26994     0.16068     0.69817E-01 0.39963E-01 0.57899E-01
 0.12855     0.22796     0.31011     0.36309     0.39121     0.39986     0.39121     0.36309     0.31011     0.22796    
 0.12855     0.57899E-01 0.39963E-01 0.69817E-01 0.16068     0.26994     0.34379     0.37647     0.37516     0.34831    
 0.30653     0.26301     0.23445     0.24225     0.30830     0.43400     0.57372     0.67694     0.73492     0.76102    
 0.79256     0.78511     0.75777     0.69672     0.58678     0.43720     0.30360     0.23403     0.22522     0.25414    
 0.29830     0.33902     0.36198     0.35755     0.32003     0.24591     0.14312     0.60543E-01 0.33905E-01 0.49610E-01
 0.11323     0.20589     0.28647     0.34248     0.37489     0.38548     0.37489     0.34248     0.28647     0.20589    
 0.11323     0.49610E-01 0.33905E-01 0.60543E-01 0.14312     0.24591     0.32003     0.35755     0.36198     0.33902    
 0.29830     0.25414     0.22522     0.23403     0.30360     0.43720     0.58678     0.69672     0.75777     0.78511    
 0.84191     0.83375     0.80390     0.73595     0.60915     0.43376     0.28115     0.20488     0.19460     0.22442    
 0.27002     0.30831     0.32232     0.30528     0.25901     0.18804     0.10260     0.39720E-01 0.20657E-01 0.31289E-01
 0.78010E-01 0.15224     0.22468     0.28410     0.32483     0.33961     0.32483     0.28410     0.22468     0.15224    
 0.78010E-01 0.31289E-01 0.20657E-01 0.39720E-01 0.10260     0.18804     0.25901     0.30528     0.32232     0.30831    
 0.27002     0.22442     0.19460     0.20488     0.28115     0.43376     0.60915     0.73595     0.80390     0.83375    
 0.87879     0.86971     0.83647     0.75903     0.60850     0.39892     0.22862     0.15180     0.14246     0.17205    
 0.21718     0.25186     0.25726     0.23103     0.18319     0.12339     0.60822E-01 0.20158E-01 0.91578E-02 0.14758E-01
 0.42366E-01 0.90976E-01 0.14454     0.19697     0.23975     0.25686     0.23975     0.19697     0.14454     0.90976E-01
 0.42366E-01 0.14758E-01 0.91578E-02 0.20158E-01 0.60822E-01 0.12339     0.18319     0.23103     0.25726     0.25186    
 0.21718     0.17205     0.14246     0.15180     0.22862     0.39892     0.60850     0.75903     0.83647     0.86971    
 0.88959     0.87859     0.83858     0.74523     0.56303     0.32181     0.15246     0.88872E-01 0.83429E-01 0.10892    
 0.14717     0.17462     0.17475     0.14930     0.11083     0.68579E-01 0.30091E-01 0.83715E-02 0.31837E-02 0.54749E-02
 0.17737E-01 0.40423E-01 0.68507E-01 0.10162     0.13352     0.14752     0.13352     0.10162     0.68507E-01 0.40423E-01
 0.17737E-01 0.54749E-02 0.31837E-02 0.83715E-02 0.30091E-01 0.68579E-01 0.11083     0.14930     0.17475     0.17462    
 0.14717     0.10892     0.83429E-01 0.88872E-01 0.15246     0.32181     0.56303     0.74523     0.83858     0.87859    
 0.87231     0.85724     0.80366     0.68351     0.46516     0.21683     0.79614E-01 0.39450E-01 0.37954E-01 0.55591E-01
 0.81013E-01 0.97227E-01 0.94356E-01 0.76385E-01 0.52539E-01 0.29534E-01 0.11951E-01 0.30418E-02 0.99216E-03 0.17188E-02
 0.55197E-02 0.12605E-01 0.23474E-01 0.39792E-01 0.58150E-01 0.66825E-01 0.58150E-01 0.39792E-01 0.23474E-01 0.12605E-01
 0.55197E-02 0.17188E-02 0.99216E-03 0.30418E-02 0.11951E-01 0.29534E-01 0.52539E-01 0.76385E-01 0.94356E-01 0.97227E-01
 0.81013E-01 0.55591E-01 0.37954E-01 0.39450E-01 0.79614E-01 0.21683     0.46516     0.68351     0.80366     0.85724    
 0.81365     0.79091     0.71346     0.55652     0.32055     0.11679     0.32659E-01 0.13495E-01 0.13513E-01 0.22565E-01
 0.34873E-01 0.40985E-01 0.37356E-01 0.27797E-01 0.17206E-01 0.87763E-02 0.35245E-02 0.10016E-02 0.35566E-03 0.63253E-03
 0.20205E-02 0.53458E-02 0.12546E-01 0.25928E-01 0.42524E-01 0.50644E-01 0.42524E-01 0.25928E-01 0.12546E-01 0.53458E-02
 0.20205E-02 0.63253E-03 0.35566E-03 0.10016E-02 0.35245E-02 0.87763E-02 0.17206E-01 0.27797E-01 0.37356E-01 0.40985E-01
 0.34873E-01 0.22565E-01 0.13513E-01 0.13495E-01 0.32659E-01 0.11679     0.32055     0.55652     0.71346     0.79091    
 0.66554     0.63074     0.52282     0.34755     0.16176     0.48553E-01 0.11190E-01 0.39117E-02 0.39945E-02 0.70660E-02
 0.10748E-01 0.12204E-01 0.10839E-01 0.79234E-02 0.48907E-02 0.26163E-02 0.12447E-02 0.52977E-03 0.34730E-03 0.86680E-03
 0.32937E-02 0.10600E-01 0.28563E-01 0.61906E-01 0.10061     0.11848     0.10061     0.61906E-01 0.28563E-01 0.10600E-01
 0.32937E-02 0.86680E-03 0.34730E-03 0.52977E-03 0.12447E-02 0.26163E-02 0.48907E-02 0.79234E-02 0.10839E-01 0.12204E-01
 0.10748E-01 0.70660E-02 0.39945E-02 0.39117E-02 0.11190E-01 0.48553E-01 0.16176     0.34755     0.52282     0.63074    
 0.37048     0.33296     0.23617     0.12620     0.49587E-01 0.14309E-01 0.32575E-02 0.10691E-02 0.11132E-02 0.19225E-02
 0.29791E-02 0.39672E-02 0.45779E-02 0.45779E-02 0.39672E-02 0.29791E-02 0.19225E-02 0.11132E-02 0.10691E-02 0.32575E-02
 0.14309E-01 0.49587E-01 0.12620     0.23617     0.33296     0.37048     0.33296     0.23617     0.12620     0.49587E-01
 0.14309E-01 0.32575E-02 0.10691E-02 0.11132E-02 0.19225E-02 0.29791E-02 0.39672E-02 0.45779E-02 0.45779E-02 0.39672E-02
 0.29791E-02 0.19225E-02 0.11132E-02 0.10691E-02 0.32575E-02 0.14309E-01 0.49587E-01 0.12620     0.23617     0.33296    
 0.11848     0.10061     0.61906E-01 0.28563E-01 0.10600E-01 0.32937E-02 0.86680E-03 0.34730E-03 0.52977E-03 0.12447E-02
 0.26163E-02 0.48907E-02 0.79234E-02 0.10839E-01 0.12204E-01 0.10748E-01 0.70660E-02 0.39945E-02 0.39117E-02 0.11190E-01
 0.48553E-01 0.16176     0.34755     0.52282     0.63074     0.66554     0.63074     0.52282     0.34755     0.16176    
 0.48553E-01 0.11190E-01 0.39117E-02 0.39945E-02 0.70660E-02 0.10748E-01 0.12204E-01 0.10839E-01 0.79234E-02 0.48907E-02
 0.26163E-02 0.12447E-02 0.52977E-03 0.34730E-03 0.86680E-03 0.32937E-02 0.10600E-01 0.28563E-01 0.61906E-01 0.10061    
 0.50644E-01 0.42524E-01 0.25928E-01 0.12546E-01 0.53458E-02 0.20205E-02 0.63253E-03 0.35566E-03 0.10016E-02 0.35245E-02
 0.87763E-02 0.17206E-01 0.27797E-01 0.37356E-01 0.40985E-01 0.34873E-01 0.22565E-01 0.13513E-01 0.13495E-01 0.32659E-01
 0.11679     0.32055     0.55652     0.71346     0.79091     0.81365     0.79091     0.71346     0.55652     0.32055    
 0.11679     0.32659E-01 0.13495E-01 0.13513E-01 0.22565E-01 0.34873E-01 0.40985E-01 0.37356E-01 0.27797E-01 0.17206E-01
 0.87763E-02 0.35245E-02 0.10016E-02 0.35566E-03 0.63253E-03 0.20205E-02 0.53458E-02 0.12546E-01 0.25928E-01 0.42524E-01
 0.66825E-01 0.58150E-01 0.39792E-01 0.23474E-01 0.12605E-01 0.55197E-02 0.17188E-02 0.99216E-03 0.30418E-02 0.11951E-01
 0.29534E-01 0.52539E-01 0.76385E-01 0.94356E-01 0.97227E-01 0.81013E-01 0.55591E-01 0.37954E-01 0.39450E-01 0.79614E-01
 0.21683     0.46516     0.68351     0.80366     0.85724     0.87231     0.85724     0.80366     0.68351     0.46516    
 0.21683     0.79614E-01 0.39450E-01 0.37954E-01 0.55591E-01 0.81013E-01 0.97227E-01 0.94356E-01 0.76385E-01 0.52539E-01
 0.29534E-01 0.11951E-01 0.30418E-02 0.99216E-03 0.17188E-02 0.55197E-02 0.12605E-01 0.23474E-01 0.39792E-01 0.58150E-01
 0.14752     0.13352     0.10162     0.68507E-01 0.40423E-01 0.17737E-01 0.54749E-02 0.31837E-02 0.83715E-02 0.30091E-01
 0.68579E-01 0.11083     0.14930     0.17475     0.17462     0.14717     0.10892     0.83429E-01 0.88872E-01 0.15246    
 0.32181     0.56303     0.74523     0.83858     0.87859     0.88959     0.87859     0.83858     0.74523     0.56303    
 0.32181     0.15246     0.88872E-01 0.83429E-01 0.10892     0.14717     0.17462     0.17475     0.14930     0.11083    
 0.68579E-01 0.30091E-01 0.83715E-02 0.31837E-02 0.54749E-02 0.17737E-01 0.40423E-01 0.68507E-01 0.10162     0.13352    
 0.25686     0.23975     0.19697     0.14454     0.90976E-01 0.42366E-01 0.14758E-01 0.91578E-02 0.20158E-01 0.60822E-01
 0.12339     0.18319     0.23103     0.25726     0.25186     0.21718     0.17205     0.14246     0.15180     0.22862    
 0.39892     0.60850     0.75903     0.83647     0.86971     0.87879     0.86971     0.83647     0.75903     0.60850    
 0.39892     0.22862     0.15180     0.14246     0.17205     0.21718     0.25186     0.25726     0.23103     0.18319    
 0.12339     0.60822E-01 0.20158E-01 0.91578E-02 0.14758E-01 0.42366E-01 0.90976E-01 0.14454     0.19697     0.23975    
 0.33961     0.32483     0.28410     0.22468     0.15224     0.78010E-01 0.31289E-01 0.20657E-01 0.39720E-01 0.10260    
 0.18804     0.25901     0.30528     0.32232     0.30831     0.27002     0.22442     0.19460     0.20488     0.28115    
 0.43376     0.60915     0.73595     0.80390     0.83375     0.84191     0.83375     0.80390     0.73595     0.60915    
 0.43376     0.28115     0.20488     0.19460     0.22442     0.27002     0.30831     0.32232     0.30528     0.25901    
 0.18804     0.10260     0.39720E-01 0.20657E-01 0.31289E-01 0.78010E-01 0.15224     0.22468     0.28410     0.32483    
 0.38548     0.37489     0.34248     0.28647     0.20589     0.11323     0.49610E-01 0.33905E-01 0.60543E-01 0.14312    
 0.24591     0.32003     0.35755     0.36198     0.33902     0.29830     0.25414     0.22522     0.23403     0.30360    
 0.43720     0.58678     0.69672     0.75777     0.78511     0.79256     0.78511     0.75777     0.69672     0.58678    
 0.43720     0.30360     0.23403     0.22522     0.25414     0.29830     0.33902     0.36198     0.35755     0.32003    
 0.24591     0.14312     0.60543E-01 0.33905E-01 0.49610E-01 0.11323     0.20589     0.28647     0.34248     0.37489    
 0.39986     0.39121     0.36309     0.31011     0.22796     0.12855     0.57899E-01 0.39963E-01 0.69817E-01 0.16068    