elf                                     
   1.00000000000000     
     3.904414    0.000000    0.000000
     0.000000    7.747728    0.000000
     0.000000    0.000000    1.941467
   Mg   Si   O 
     6     2     8
Direct
  0.500000  0.262380  0.500000
  0.000000  0.237620  0.500000
  0.500000  0.000000  0.500000
  0.000000  0.762380  0.500000
  0.500000  0.737620  0.500000
  0.000000  0.500000  0.500000
  0.000000  0.000000  0.000000
  0.500000  0.500000  0.000000
  0.731596  0.130875  0.000000
  0.768404  0.369125  0.000000
  0.268404  0.130875  0.000000
  0.231596  0.369125  0.000000
  0.231596  0.630875  0.000000
  0.268404  0.869125  0.000000
  0.768404  0.630875  0.000000
  0.731596  0.869125  0.000000
 
   28   60   14
 0.13413E-01 0.14296E-01 0.22633E-01 0.50333E-01 0.10505     0.16984     0.21579     0.23321     0.23023     0.21405    
 0.18456     0.13851     0.79712E-01 0.33984E-01 0.20381E-01 0.33984E-01 0.79712E-01 0.13851     0.18456     0.21405    
 0.23023     0.23321     0.21579     0.16984     0.10505     0.50333E-01 0.22633E-01 0.14296E-01 0.14667E-01 0.19498E-01
 0.41370E-01 0.97247E-01 0.18622     0.27384     0.32989     0.35196     0.35071     0.33152     0.29141     0.22312    
 0.12882     0.53064E-01 0.31093E-01 0.53064E-01 0.12882     0.22312     0.29141     0.33152     0.35071     0.35196    
 0.32989     0.27384     0.18622     0.97247E-01 0.41370E-01 0.19498E-01 0.22528E-01 0.41476E-01 0.12998     0.30225    
 0.46800     0.57121     0.62169     0.64266     0.64788     0.63681     0.59642     0.49652     0.30234     0.11772    
 0.65751E-01 0.11772     0.30234     0.49652     0.59642     0.63681     0.64788     0.64266     0.62169     0.57121    
 0.46800     0.30225     0.12998     0.41476E-01 0.46421E-01 0.94782E-01 0.30635     0.57649     0.72190     0.77724    
 0.79346     0.79883     0.80556     0.81025     0.79718     0.72807     0.50665     0.20382     0.11029     0.20382    
 0.50665     0.72807     0.79718     0.81025     0.80556     0.79883     0.79346     0.77724     0.72190     0.57649    
 0.30635     0.94782E-01 0.94692E-01 0.18051     0.47888     0.72935     0.81650     0.83056     0.81685     0.80433    
 0.81209     0.83333     0.84384     0.80859     0.62587     0.27266     0.14390     0.27266     0.62587     0.80859    
 0.84384     0.83333     0.81209     0.80433     0.81685     0.83056     0.81650     0.72935     0.47888     0.18051    
 0.15940     0.27216     0.58919     0.78990     0.83589     0.81403     0.75625     0.70851     0.72189     0.78088    
 0.82806     0.82272     0.67987     0.31689     0.16208     0.31689     0.67987     0.82272     0.82806     0.78088    
 0.72189     0.70851     0.75625     0.81403     0.83589     0.78990     0.58919     0.27216     0.21661     0.34072    
 0.64681     0.80955     0.82500     0.75728     0.62029     0.50487     0.52819     0.66253     0.77767     0.80954    
 0.69916     0.34119     0.16893     0.34119     0.69916     0.80954     0.77767     0.66253     0.52819     0.50487    
 0.62029     0.75728     0.82500     0.80955     0.64681     0.34072     0.24837     0.37607     0.67286     0.81467    
 0.80828     0.69438     0.47333     0.30427     0.33031     0.52811     0.71958     0.78946     0.70216     0.35191    
 0.17028     0.35191     0.70216     0.78946     0.71958     0.52811     0.33031     0.30427     0.47333     0.69438    
 0.80828     0.81467     0.67286     0.37607     0.25305     0.38256     0.68100     0.81791     0.80544     0.67942    
 0.43765     0.25939     0.28264     0.48907     0.70115     0.78265     0.70213     0.35463     0.17054     0.35463    
 0.70213     0.78265     0.70115     0.48907     0.28264     0.25939     0.43765     0.67942     0.80544     0.81791    
 0.68100     0.38256     0.23699     0.36616     0.67423     0.82054     0.81968     0.72622     0.54263     0.38992    
 0.41044     0.58094     0.74015     0.79601     0.70296     0.35097     0.17095     0.35097     0.70296     0.79601    
 0.74015     0.58094     0.41044     0.38992     0.54263     0.72622     0.81968     0.82054     0.67423     0.36616    
 0.20486     0.32815     0.64600     0.81443     0.83545     0.78885     0.69398     0.61106     0.62460     0.71760    
 0.79848     0.81494     0.69574     0.33688     0.16891     0.33688     0.69574     0.81494     0.79848     0.71760    
 0.62460     0.61106     0.69398     0.78885     0.83545     0.81443     0.64600     0.32815     0.15838     0.26540    
 0.57709     0.77939     0.82956     0.82096     0.78605     0.75674     0.76557     0.80401     0.83359     0.81698    
 0.66280     0.30490     0.15871     0.30490     0.66280     0.81698     0.83359     0.80401     0.76557     0.75674    
 0.78605     0.82096     0.82956     0.77939     0.57709     0.26540     0.10117     0.17637     0.42921     0.65865    
 0.75547     0.78605     0.78900     0.78810     0.79851     0.81553     0.81861     0.77182     0.57631     0.24733    
 0.13380     0.24733     0.57631     0.77182     0.81861     0.81553     0.79851     0.78810     0.78900     0.78605    
 0.75547     0.65865     0.42921     0.17637     0.49135E-01 0.85539E-01 0.21593     0.38138     0.50506     0.58414    
 0.63177     0.66229     0.68513     0.69682     0.68060     0.60092     0.39602     0.16215     0.91726E-01 0.16215    
 0.39602     0.60092     0.68060     0.69682     0.68513     0.66229     0.63177     0.58414     0.50506     0.38138    
 0.21593     0.85539E-01 0.23418E-01 0.39002E-01 0.91209E-01 0.15893     0.21604     0.26016     0.29589     0.32682    
 0.35217     0.36410     0.34839     0.28808     0.17786     0.77020E-01 0.46286E-01 0.77020E-01 0.17786     0.28808    
 0.34839     0.36410     0.35217     0.32682     0.29589     0.26016     0.21604     0.15893     0.91209E-01 0.39002E-01
 0.22782E-01 0.36781E-01 0.80767E-01 0.13102     0.16264     0.17520     0.17736     0.17707     0.17736     0.17520    
 0.16264     0.13102     0.80767E-01 0.36781E-01 0.22782E-01 0.36781E-01 0.80767E-01 0.13102     0.16264     0.17520    
 0.17736     0.17707     0.17736     0.17520     0.16264     0.13102     0.80767E-01 0.36781E-01 0.46286E-01 0.77020E-01
 0.17786     0.28808     0.34839     0.36410     0.35217     0.32682     0.29589     0.26016     0.21604     0.15893    
 0.91209E-01 0.39002E-01 0.23418E-01 0.39002E-01 0.91209E-01 0.15893     0.21604     0.26016     0.29589     0.32682    
 0.35217     0.36410     0.34839     0.28808     0.17786     0.77020E-01 0.91726E-01 0.16215     0.39602     0.60092    
 0.68060     0.69682     0.68513     0.66229     0.63177     0.58414     0.50506     0.38138     0.21593     0.85539E-01
 0.49135E-01 0.85539E-01 0.21593     0.38138     0.50506     0.58414     0.63177     0.66229     0.68513     0.69682    
 0.68060     0.60092     0.39602     0.16215     0.13380     0.24733     0.57631     0.77182     0.81861     0.81553    
 0.79851     0.78810     0.78900     0.78605     0.75547     0.65865     0.42921     0.17637     0.10117     0.17637    
 0.42921     0.65865     0.75547     0.78605     0.78900     0.78810     0.79851     0.81553     0.81861     0.77182    
 0.57631     0.24733     0.15871     0.30490     0.66280     0.81698     0.83359     0.80401     0.76557     0.75674    
 0.78605     0.82096     0.82956     0.77939     0.57709     0.26540     0.15838     0.26540     0.57709     0.77939    
 0.82956     0.82096     0.78605     0.75674     0.76557     0.80401     0.83359     0.81698     0.66280     0.30490    
 0.16891     0.33688     0.69574     0.81494     0.79848     0.71760     0.62460     0.61106     0.69398     0.78885    
 0.83545     0.81443     0.64600     0.32815     0.20486     0.32815     0.64600     0.81443     0.83545     0.78885    
 0.69398     0.61106     0.62460     0.71760     0.79848     0.81494     0.69574     0.33688     0.17095     0.35097    
 0.70296     0.79601     0.74015     0.58094     0.41044     0.38992     0.54263     0.72622     0.81968     0.82054    
 0.67423     0.36616     0.23699     0.36616     0.67423     0.82054     0.81968     0.72622     0.54263     0.38992    
 0.41044     0.58094     0.74015     0.79601     0.70296     0.35097     0.17054     0.35463     0.70213     0.78265    
 0.70115     0.48907     0.28264     0.25939     0.43765     0.67942     0.80544     0.81791     0.68100     0.38256    
 0.25305     0.38256     0.68100     0.81791     0.80544     0.67942     0.43765     0.25939     0.28264     0.48907    
 0.70115     0.78265     0.70213     0.35463     0.17028     0.35191     0.70216     0.78946     0.71958     0.52811    
 0.33031     0.30427     0.47333     0.69438     0.80828     0.81467     0.67286     0.37607     0.24837     0.37607    
 0.67286     0.81467     0.80828     0.69438     0.47333     0.30427     0.33031     0.52811     0.71958     0.78946    
 0.70216     0.35191     0.16893     0.34119     0.69916     0.80954     0.77767     0.66253     0.52819     0.50487    
 0.62029     0.75728     0.82500     0.80955     0.64681     0.34072     0.21661     0.34072     0.64681     0.80955    
 0.82500     0.75728     0.62029     0.50487     0.52819     0.66253     0.77767     0.80954     0.69916     0.34119    
 0.16208     0.31689     0.67987     0.82272     0.82806     0.78088     0.72189     0.70851     0.75625     0.81403    
 0.83589     0.78990     0.58919     0.27216     0.15940     0.27216     0.58919     0.78990     0.83589     0.81403    
 0.75625     0.70851     0.72189     0.78088     0.82806     0.82272     0.67987     0.31689     0.14390     0.27266    
 0.62587     0.80859     0.84384     0.83333     0.81209     0.80433     0.81685     0.83056     0.81650     0.72935    
 0.47888     0.18051     0.94692E-01 0.18051     0.47888     0.72935     0.81650     0.83056     0.81685     0.80433    
 0.81209     0.83333     0.84384     0.80859     0.62587     0.27266     0.11029     0.20382     0.50665     0.72807    
 0.79718     0.81025     0.80556     0.79883     0.79346     0.77724     0.72190     0.57649     0.30635     0.94782E-01
 0.46421E-01 0.94782E-01 0.30635     0.57649     0.72190     0.77724     0.79346     0.79883     0.80556     0.81025    
 0.79718     0.72807     0.50665     0.20382     0.65751E-01 0.11772     0.30234     0.49652     0.59642     0.63681    
 0.64788     0.64266     0.62169     0.57121     0.46800     0.30225     0.12998     0.41476E-01 0.22528E-01 0.41476E-01
 0.12998     0.30225     0.46800     0.57121     0.62169     0.64266     0.64788     0.63681     0.59642     0.49652    
 0.30234     0.11772     0.31093E-01 0.53064E-01 0.12882     0.22312     0.29141     0.33152     0.35071     0.35196    
 0.32989     0.27384     0.18622     0.97247E-01 0.41370E-01 0.19498E-01 0.14667E-01 0.19498E-01 0.41370E-01 0.97247E-01
 0.18622     0.27384     0.32989     0.35196     0.35071     0.33152     0.29141     0.22312     0.12882     0.53064E-01
 0.20381E-01 0.33984E-01 0.79712E-01 0.13851     0.18456     0.21405     0.23023     0.23321     0.21579     0.16984    
 0.10505     0.50333E-01 0.22633E-01 0.14296E-01 0.13413E-01 0.14296E-01 0.22633E-01 0.50333E-01 0.10505     0.16984    
 0.21579     0.23321     0.23023     0.21405     0.18456     0.13851     0.79712E-01 0.33984E-01 0.31093E-01 0.53064E-01
 0.12882     0.22312     0.29141     0.33152     0.35071     0.35196     0.32989     0.27384     0.18622     0.97247E-01
 0.41370E-01 0.19498E-01 0.14667E-01 0.19498E-01 0.41370E-01 0.97247E-01 0.18622     0.27384     0.32989     0.35196    
 0.35071     0.33152     0.29141     0.22312     0.12882     0.53064E-01 0.65751E-01 0.11772     0.30234     0.49652    
 0.59642     0.63681     0.64788     0.64266     0.62169     0.57121     0.46800     0.30225     0.12998     0.41476E-01
 0.22528E-01 0.41476E-01 0.12998     0.30225     0.46800     0.57121     0.62169     0.64266     0.64788     0.63681    
 0.59642     0.49652     0.30234     0.11772     0.11029     0.20382     0.50665     0.72807     0.79718     0.81025    
 0.80556     0.79883     0.79346     0.77724     0.72190     0.57649     0.30635     0.94782E-01 0.46421E-01 0.94782E-01
 0.30635     0.57649     0.72190     0.77724     0.79346     0.79883     0.80556     0.81025     0.79718     0.72807    
 0.50665     0.20382     0.14390     0.27266     0.62587     0.80859     0.84384     0.83333     0.81209     0.80433    
 0.81685     0.83056     0.81650     0.72935     0.47888     0.18051     0.94692E-01 0.18051     0.47888     0.72935    
 0.81650     0.83056     0.81685     0.80433     0.81209     0.83333     0.84384     0.80859     0.62587     0.27266    
 0.16208     0.31689     0.67987     0.82272     0.82806     0.78088     0.72189     0.70851     0.75625     0.81403    
 0.83589     0.78990     0.58919     0.27216     0.15940     0.27216     0.58919     0.78990     0.83589     0.81403    
 0.75625     0.70851     0.72189     0.78088     0.82806     0.82272     0.67987     0.31689     0.16893     0.34119    
 0.69916     0.80954     0.77767     0.66253     0.52819     0.50487     0.62029     0.75728     0.82500     0.80955    
 0.64681     0.34072     0.21661     0.34072     0.64681     0.80955     0.82500     0.75728     0.62029     0.50487    
 0.52819     0.66253     0.77767     0.80954     0.69916     0.34119     0.17028     0.35191     0.70216     0.78946    
 0.71958     0.52811     0.33031     0.30427     0.47333     0.69438     0.80828     0.81467     0.67286     0.37607    
 0.24837     0.37607     0.67286     0.81467     0.80828     0.69438     0.47333     0.30427     0.33031     0.52811    
 0.71958     0.78946     0.70216     0.35191     0.17054     0.35463     0.70213     0.78265     0.70115     0.48907    
 0.28264     0.25939     0.43765     0.67942     0.80544     0.81791     0.68100     0.38256     0.25305     0.38256    
 0.68100     0.81791     0.80544     0.67942     0.43765     0.25939     0.28264     0.48907     0.70115     0.78265    
 0.70213     0.35463     0.17095     0.35097     0.70296     0.79601     0.74015     0.58094     0.41044     0.38992    
 0.54263     0.72622     0.81968     0.82054     0.67423     0.36616     0.23699     0.36616     0.67423     0.82054    
 0.81968     0.72622     0.54263     0.38992     0.41044     0.58094     0.74015     0.79601     0.70296     0.35097    
 0.16891     0.33688     0.69574     0.81494     0.79848     0.71760     0.62460     0.61106     0.69398     0.78885    
 0.83545     0.81443     0.64600     0.32815     0.20486     0.32815     0.64600     0.81443     0.83545     0.78885    
 0.69398     0.61106     0.62460     0.71760     0.79848     0.81494     0.69574     0.33688     0.15871     0.30490    
 0.66280     0.81698     0.83359     0.80401     0.76557     0.75674     0.78605     0.82096     0.82956     0.77939    
 0.57709     0.26540     0.15838     0.26540     0.57709     0.77939     0.82956     0.82096     0.78605     0.75674    
 0.76557     0.80401     0.83359     0.81698     0.66280     0.30490     0.13380     0.24733     0.57631     0.77182    
 0.81861     0.81553     0.79851     0.78810     0.78900     0.78605     0.75547     0.65865     0.42921     0.17637    
 0.10117     0.17637     0.42921     0.65865     0.75547     0.78605     0.78900     0.78810     0.79851     0.81553    
 0.81861     0.77182     0.57631     0.24733     0.91726E-01 0.16215     0.39602     0.60092     0.68060     0.69682    
 0.68513     0.66229     0.63177     0.58414     0.50506     0.38138     0.21593     0.85539E-01 0.49135E-01 0.85539E-01
 0.21593     0.38138     0.50506     0.58414     0.63177     0.66229     0.68513     0.69682     0.68060     0.60092    
 0.39602     0.16215     0.46286E-01 0.77020E-01 0.17786     0.28808     0.34839     0.36410     0.35217     0.32682    
 0.29589     0.26016     0.21604     0.15893     0.91209E-01 0.39002E-01 0.23418E-01 0.39002E-01 0.91209E-01 0.15893    
 0.21604     0.26016     0.29589     0.32682     0.35217     0.36410     0.34839     0.28808     0.17786     0.77020E-01
 0.22782E-01 0.36781E-01 0.80767E-01 0.13102     0.16264     0.17520     0.17736     0.17707     0.17736     0.17520    
 0.16264     0.13102     0.80767E-01 0.36781E-01 0.22782E-01 0.36781E-01 0.80767E-01 0.13102     0.16264     0.17520    
 0.17736     0.17707     0.17736     0.17520     0.16264     0.13102     0.80767E-01 0.36781E-01 0.23418E-01 0.39002E-01
 0.91209E-01 0.15893     0.21604     0.26016     0.29589     0.32682     0.35217     0.36410     0.34839     0.28808    
 0.17786     0.77020E-01 0.46286E-01 0.77020E-01 0.17786     0.28808     0.34839     0.36410     0.35217     0.32682    
 0.29589     0.26016     0.21604     0.15893     0.91209E-01 0.39002E-01 0.49135E-01 0.85539E-01 0.21593     0.38138    
 0.50506     0.58414     0.63177     0.66229     0.68513     0.69682     0.68060     0.60092     0.39602     0.16215    
 0.91726E-01 0.16215     0.39602     0.60092     0.68060     0.69682     0.68513     0.66229     0.63177     0.58414    
 0.50506     0.38138     0.21593     0.85539E-01 0.10117     0.17637     0.42921     0.65865     0.75547     0.78605    
 0.78900     0.78810     0.79851     0.81553     0.81861     0.77182     0.57631     0.24733     0.13380     0.24733    
 0.57631     0.77182     0.81861     0.81553     0.79851     0.78810     0.78900     0.78605     0.75547     0.65865    
 0.42921     0.17637     0.15838     0.26540     0.57709     0.77939     0.82956     0.82096     0.78605     0.75674    
 0.76557     0.80401     0.83359     0.81698     0.66280     0.30490     0.15871     0.30490     0.66280     0.81698    
 0.83359     0.80401     0.76557     0.75674     0.78605     0.82096     0.82956     0.77939     0.57709     0.26540    
 0.20486     0.32815     0.64600     0.81443     0.83545     0.78885     0.69398     0.61106     0.62460     0.71760    
 0.79848     0.81494     0.69574     0.33688     0.16891     0.33688     0.69574     0.81494     0.79848     0.71760    
 0.62460     0.61106     0.69398     0.78885     0.83545     0.81443     0.64600     0.32815     0.23699     0.36616    
 0.67423     0.82054     0.81968     0.72622     0.54263     0.38992     0.41044     0.58094     0.74015     0.79601    
 0.70296     0.35097     0.17095     0.35097     0.70296     0.79601     0.74015     0.58094     0.41044     0.38992    
 0.54263     0.72622     0.81968     0.82054     0.67423     0.36616     0.25305     0.38256     0.68100     0.81791    
 0.80544     0.67942     0.43765     0.25939     0.28264     0.48907     0.70115     0.78265     0.70213     0.35463    
 0.17054     0.35463     0.70213     0.78265     0.70115     0.48907     0.28264     0.25939     0.43765     0.67942    
 0.80544     0.81791     0.68100     0.38256     0.24837     0.37607     0.67286     0.81467     0.80828     0.69438    
 0.47333     0.30427     0.33031     0.52811     0.71958     0.78946     0.70216     0.35191     0.17028     0.35191    
 0.70216     0.78946     0.71958     0.52811     0.33031     0.30427     0.47333     0.69438     0.80828     0.81467    
 0.67286     0.37607     0.21661     0.34072     0.64681     0.80955     0.82500     0.75728     0.62029     0.50487    
 0.52819     0.66253     0.77767     0.80954     0.69916     0.34119     0.16893     0.34119     0.69916     0.80954    
 0.77767     0.66253     0.52819     0.50487     0.62029     0.75728     0.82500     0.80955     0.64681     0.34072    
 0.15940     0.27216     0.58919     0.78990     0.83589     0.81403     0.75625     0.70851     0.72189     0.78088    
 0.82806     0.82272     0.67987     0.31689     0.16208     0.31689     0.67987     0.82272     0.82806     0.78088    
 0.72189     0.70851     0.75625     0.81403     0.83589     0.78990     0.58919     0.27216     0.94692E-01 0.18051    
 0.47888     0.72935     0.81650     0.83056     0.81685     0.80433     0.81209     0.83333     0.84384     0.80859    
 0.62587     0.27266     0.14390     0.27266     0.62587     0.80859     0.84384     0.83333     0.81209     0.80433    
 0.81685     0.83056     0.81650     0.72935     0.47888     0.18051     0.46421E-01 0.94782E-01 0.30635     0.57649    
 0.72190     0.77724     0.79346     0.79883     0.80556     0.81025     0.79718     0.72807     0.50665     0.20382    
 0.11029     0.20382     0.50665     0.72807     0.79718     0.81025     0.80556     0.79883     0.79346     0.77724    
 0.72190     0.57649     0.30635     0.94782E-01 0.22528E-01 0.41476E-01 0.12998     0.30225     0.46800     0.57121    
 0.62169     0.64266     0.64788     0.63681     0.59642     0.49652     0.30234     0.11772     0.65751E-01 0.11772    
 0.30234     0.49652     0.59642     0.63681     0.64788     0.64266     0.62169     0.57121     0.46800     0.30225    
 0.12998     0.41476E-01 0.14667E-01 0.19498E-01 0.41370E-01 0.97247E-01 0.18622     0.27384     0.32989     0.35196    
 0.35071     0.33152     0.29141     0.22312     0.12882     0.53064E-01 0.31093E-01 0.53064E-01 0.12882     0.22312    
 0.29141     0.33152     0.35071     0.35196     0.32989     0.27384     0.18622     0.97247E-01 0.41370E-01 0.19498E-01
 0.30751E-01 0.27215E-01 0.30230E-01 0.53095E-01 0.10214     0.16325     0.20819     0.22508     0.22030     0.20111    
 0.16911     0.12337     0.68869E-01 0.28378E-01 0.16675E-01 0.28378E-01 0.68869E-01 0.12337     0.16911     0.20111    
 0.22030     0.22508     0.20819     0.16325     0.10214     0.53095E-01 0.30230E-01 0.27215E-01 0.28435E-01 0.30868E-01
 0.46910E-01 0.92744E-01 0.17192     0.25621     0.31335     0.33686     0.33523     0.31372     0.27102     0.20277    
 0.11369     0.45217E-01 0.25955E-01 0.45217E-01 0.11369     0.20277     0.27102     0.31372     0.33523     0.33686    
 0.31335     0.25621     0.17192     0.92744E-01 0.46910E-01 0.30868E-01 0.31446E-01 0.47944E-01 0.11733     0.25947    
 0.41986     0.53378     0.59480     0.62250     0.63052     0.61883     0.57533     0.47141     0.27840     0.10410    
 0.56939E-01 0.10410     0.27840     0.47141     0.57533     0.61883     0.63052     0.62250     0.59480     0.53378    
 0.41986     0.25947     0.11733     0.47944E-01 0.50935E-01 0.91550E-01 0.26155     0.51217     0.67841     0.75197    
 0.77897     0.79046     0.79953     0.80363     0.78783     0.71289     0.48303     0.18622     0.98865E-01 0.18622    
 0.48303     0.71289     0.78783     0.80363     0.79953     0.79046     0.77897     0.75197     0.67841     0.51217    
 0.26155     0.91550E-01 0.93815E-01 0.16663     0.42582     0.68388     0.79272     0.81939     0.81429     0.80773    
 0.81686     0.83558     0.84232     0.80191     0.60901     0.25584     0.13318     0.25584     0.60901     0.80191    
 0.84232     0.83558     0.81686     0.80773     0.81429     0.81939     0.79272     0.68388     0.42582     0.16663    
 0.15385     0.25319     0.54663     0.76258     0.82406     0.81324     0.76870     0.73295     0.74693     0.79648    
 0.83422     0.82201     0.66974     0.30396     0.15456     0.30396     0.66974     0.82201     0.83422     0.79648    
 0.74693     0.73295     0.76870     0.81324     0.82406     0.76258     0.54663     0.25319     0.20834     0.32146    
 0.61573     0.79320     0.82133     0.76941     0.66054     0.57032     0.59366     0.70399     0.79546     0.81492    
 0.69482     0.33301     0.16532     0.33301     0.69482     0.81492     0.79546     0.70399     0.59366     0.57032    
 0.66054     0.76941     0.82133     0.79320     0.61573     0.32146     0.23795     0.35733     0.64927     0.80469    
 0.81090     0.72076     0.54350     0.40088     0.42907     0.59912     0.75073     0.80057     0.70217     0.34746    
 0.16965     0.34746     0.70217     0.80057     0.75073     0.59912     0.42907     0.40088     0.54350     0.72076    
 0.81090     0.80469     0.64927     0.35733     0.23976     0.36285     0.66078     0.81080     0.81077     0.71135    
 0.51742     0.36261     0.38871     0.56986     0.73748     0.79605     0.70377     0.35144     0.17085     0.35144    
 0.70377     0.79605     0.73748     0.56986     0.38871     0.36261     0.51742     0.71135     0.81077     0.81080    
 0.66078     0.36285     0.22036     0.34401     0.65403     0.81354     0.82359     0.75093     0.60692     0.48406    
 0.50491     0.64513     0.76888     0.80675     0.70286     0.34610     0.16982     0.34610     0.70286     0.80675    
 0.76888     0.64513     0.50491     0.48406     0.60692     0.75093     0.82359     0.81354     0.65403     0.34401    
 0.18603     0.30363     0.62345     0.80556     0.83587     0.80191     0.72876     0.66611     0.67902     0.75250    
 0.81474     0.82045     0.69153     0.32816     0.16448     0.32816     0.69153     0.82045     0.81474     0.75250    
 0.67902     0.66611     0.72876     0.80191     0.83587     0.80556     0.62345     0.30363     0.14023     0.24087    
 0.55081     0.76651     0.82578     0.82527     0.80046     0.77957     0.78811     0.81883     0.84037     0.81717    
 0.65317     0.29173     0.15041     0.29173     0.65317     0.81717     0.84037     0.81883     0.78811     0.77957    
 0.80046     0.82527     0.82578     0.76651     0.55081     0.24087     0.87273E-01 0.15630     0.40070     0.63789    
 0.74484     0.78328     0.79297     0.79641     0.80669     0.82007     0.81856     0.76588     0.56009     0.23112    
 0.12289     0.23112     0.56009     0.76588     0.81856     0.82007     0.80669     0.79641     0.79297     0.78328    
 0.74484     0.63789     0.40070     0.15630     0.41183E-01 0.73578E-01 0.19445     0.35656     0.48521     0.57208    
 0.62672     0.66118     0.68382     0.69222     0.67123     0.58520     0.37484     0.14699     0.81366E-01 0.14699    
 0.37484     0.58520     0.67123     0.69222     0.68382     0.66118     0.62672     0.57208     0.48521     0.35656    
 0.19445     0.73578E-01 0.19128E-01 0.32659E-01 0.79663E-01 0.14402     0.20223     0.25046     0.29063     0.32361    
 0.34723     0.35449     0.33351     0.26989     0.16161     0.67237E-01 0.39486E-01 0.67237E-01 0.16161     0.26989    
 0.33351     0.35449     0.34723     0.32361     0.29063     0.25046     0.20223     0.14402     0.79663E-01 0.32659E-01
 0.18726E-01 0.30961E-01 0.70790E-01 0.11897     0.15252     0.16935     0.17553     0.17685     0.17553     0.16935    
 0.15252     0.11897     0.70790E-01 0.30961E-01 0.18726E-01 0.30961E-01 0.70790E-01 0.11897     0.15252     0.16935    
 0.17553     0.17685     0.17553     0.16935     0.15252     0.11897     0.70790E-01 0.30961E-01 0.39486E-01 0.67237E-01
 0.16161     0.26989     0.33351     0.35449     0.34723     0.32361     0.29063     0.25046     0.20223     0.14402    
 0.79663E-01 0.32659E-01 0.19128E-01 0.32659E-01 0.79663E-01 0.14402     0.20223     0.25046     0.29063     0.32361    
 0.34723     0.35449     0.33351     0.26989     0.16161     0.67237E-01 0.81366E-01 0.14699     0.37484     0.58520    
 0.67123     0.69222     0.68382     0.66118     0.62672     0.57208     0.48521     0.35656     0.19445     0.73578E-01
 0.41183E-01 0.73578E-01 0.19445     0.35656     0.48521     0.57208     0.62672     0.66118     0.68382     0.69222    
 0.67123     0.58520     0.37484     0.14699     0.12289     0.23112     0.56009     0.76588     0.81856     0.82007    
 0.80669     0.79641     0.79297     0.78328     0.74484     0.63789     0.40070     0.15630     0.87273E-01 0.15630    
 0.40070     0.63789     0.74484     0.78328     0.79297     0.79641     0.80669     0.82007     0.81856     0.76588    
 0.56009     0.23112     0.15041     0.29173     0.65317     0.81717     0.84037     0.81883     0.78811     0.77957    
 0.80046     0.82527     0.82578     0.76651     0.55081     0.24087     0.14023     0.24087     0.55081     0.76651    
 0.82578     0.82527     0.80046     0.77957     0.78811     0.81883     0.84037     0.81717     0.65317     0.29173    
 0.16448     0.32816     0.69153     0.82045     0.81474     0.75250     0.67902     0.66611     0.72876     0.80191    
 0.83587     0.80556     0.62345     0.30363     0.18603     0.30363     0.62345     0.80556     0.83587     0.80191    
 0.72876     0.66611     0.67902     0.75250     0.81474     0.82045     0.69153     0.32816     0.16982     0.34610    
 0.70286     0.80675     0.76888     0.64513     0.50491     0.48406     0.60692     0.75093     0.82359     0.81354    
 0.65403     0.34401     0.22036     0.34401     0.65403     0.81354     0.82359     0.75093     0.60692     0.48406    
 0.50491     0.64513     0.76888     0.80675     0.70286     0.34610     0.17085     0.35144     0.70377     0.79605    
 0.73748     0.56986     0.38871     0.36261     0.51742     0.71135     0.81077     0.81080     0.66078     0.36285    
 0.23976     0.36285     0.66078     0.81080     0.81077     0.71135     0.51742     0.36261     0.38871     0.56986    
 0.73748     0.79605     0.70377     0.35144     0.16965     0.34746     0.70217     0.80057     0.75073     0.59912    
 0.42907     0.40088     0.54350     0.72076     0.81090     0.80469     0.64927     0.35733     0.23795     0.35733    
 0.64927     0.80469     0.81090     0.72076     0.54350     0.40088     0.42907     0.59912     0.75073     0.80057    
 0.70217     0.34746     0.16532     0.33301     0.69482     0.81492     0.79546     0.70399     0.59366     0.57032    
 0.66054     0.76941     0.82133     0.79320     0.61573     0.32146     0.20834     0.32146     0.61573     0.79320    
 0.82133     0.76941     0.66054     0.57032     0.59366     0.70399     0.79546     0.81492     0.69482     0.33301    
 0.15456     0.30396     0.66974     0.82201     0.83422     0.79648     0.74693     0.73295     0.76870     0.81324    
 0.82406     0.76258     0.54663     0.25319     0.15385     0.25319     0.54663     0.76258     0.82406     0.81324    
 0.76870     0.73295     0.74693     0.79648     0.83422     0.82201     0.66974     0.30396     0.13318     0.25584    